<?xml version="1.0"?>
<VTKFile type="UnstructuredGrid"  version="0.1"  >
<UnstructuredGrid>
<Piece  NumberOfPoints="1173" NumberOfCells="2198">
<Points>
<DataArray  type="Float64"  NumberOfComponents="3"  format="ascii">-1.013559034769809 0.1442942448718565 0  -1.005200614874762 0.03164614216189107 0  -0.9837381903697778 -0.07928660611103888 0  -0.9495624654402637 -0.1872272572823856 0  -0.9027836348047873 -0.2909406871834705 0  -0.8442522704332666 -0.3885719039377125 0  -0.7752387896162013 -0.4782037498143479 0  -0.6978765972570822 -0.5582812622382683 0  -0.6165684729473012 -0.6260103678519751 0  -0.5325173399618859 -0.6824830090749141 0  -0.4458118254302635 -0.7290047772332441 0  -0.3562198366894368 -0.7668505324344932 0  -0.2641085379360482 -0.7956812688107378 0  -0.1709095466910622 -0.8156736712784716 0  -0.07764927898758603 -0.8268207475992472 0  0.01534026963087183 -0.8295011389534891 0  0.1089779232798352 -0.8235885135941735 0  0.2020820149011547 -0.8092731935686925 0  0.2946370960702126 -0.7861619706135576 0  0.3853434218235657 -0.7540929632011731 0  0.4744091845051502 -0.7128388000731257 0  0.5594318431719592 -0.6631311888552822 0  0.641628239630575 -0.6037048926253642 0  0.7210862518902083 -0.532642493360082 0  0.7959998387645097 -0.4492785850853608 0  0.8616781640397991 -0.3567223231811266 0  0.9164080646097087 -0.2573930092132997 0  0.9588373351456556 -0.1532025283768311 0  0.9894341119378988 -0.04375523759009263 0  1.006945429755123 0.06873678375716713 0  1.011124866600762 0.1815415401330919 0  1.002325114020693 0.2926003363286317 0  0.9806485038979741 0.4027768280468148 0  0.9461891843216542 0.5101915257088415 0  0.9002382578800756 0.6117505847457824 0  0.8426287593394123 0.7076392790198883 0  0.7746316735637766 0.7966124744870741 0  0.6964557033759435 0.8779822456236684 0  0.6107318732383002 0.9492959206970867 0  0.5177459980313399 1.010715714327656 0  0.4170521264920345 1.062072513001695 0  0.3127329860110025 1.101665458482818 0  0.204562059262018 1.130008855002153 0  0.09320976371580718 1.146413893038534 0  -0.01967500107772257 1.150651621393799 0  -0.1312264165078313 1.142402878477389 0  -0.2419708436562966 1.122071121099239 0  -0.3494878768151982 1.08984340750614 0  -0.4523214128704879 1.046355434090515 0  -0.5502343681201879 0.9916442123557598 0  -0.642239144977351 0.9259853409991151 0  -0.7249762074461495 0.851735952034047 0  -0.7996127623832697 0.7681828214084809 0  -0.8643035833627059 0.6768514472239291 0  -0.9182615426597549 0.5785936534237782 0  -0.9606124437043951 0.4750900322291661 0  -0.9909745613906302 0.3670415659846233 0  -1.008735316435605 0.2562565937209785 0  -2.384319812206215 0.1026734483572936 0  -2.384333066727079 -0.1026813546176454 0  -2.366680727804463 -0.3072635426038244 0  -2.331495316971558 -0.5095739818786015 0  -2.279070689688465 -0.7081117870030258 0  -2.209746751311501 -0.9014103511792734 0  -2.124087130486454 -1.088046124112734 0  -2.022695173112741 -1.266607560138325 0  -1.906320099729709 -1.435803620026125 0  -1.7758431322399 -1.594364558471288 0  -1.632204042841605 -1.741121302128163 0  -1.476489650324688 -1.874989436536907 0  -1.309840443074723 -1.994977193514837 0  -1.133497702527757 -2.100188560680699 0  -0.9487593371524851 -2.189855023737233 0  -0.7569887671175423 -2.263311505877427 0  -0.559623335996884 -2.320008266313843 0  -0.3581141243628901 -2.359516608604981 0  -0.15395759898819 -2.381577408870592 0  0.05134787836299781 -2.385984296191135 0  0.2562707058690956 -2.372739085271408 0  0.4592945070971353 -2.341937301988901 0  0.6589149212831342 -2.293773567730882 0  0.8536657442386518 -2.228647056563221 0  1.042087609053446 -2.147012421827547 0  1.222800414535176 -2.049480031381483 0  1.394454060201659 -1.936776123123829 0  1.555789554178914 -1.809729406290313 0  1.705597043044428 -1.669292591754998 0  1.842778408692793 -1.516478058856871 0  1.966322888630909 -1.352450154024514 0  2.075304510334213 -1.178409523981943 0  2.168935398683052 -0.9956498875489469 0  2.246492726640581 -0.8055166792383998 0  2.30741285964076 -0.6094082227444222 0  2.351270856129076 -0.4087967437176005 0  2.3777074961992 -0.2051673191833785 0  2.3865427783288 1.439800833167642e-07 0  2.377697695850498 0.2051558267766248 0  2.35126940559234 0.4087983180447505 0  2.307424757492366 0.6094076798282604 0  2.246496619152496 0.8055108034026619 0  2.168936752785147 0.9956432414201883 0  2.075319226357793 1.178413961094937 0  1.966321764533334 1.352452743087001 0  1.842788730918495 1.516486096199744 0  1.705604815516722 1.669292982532588 0  1.555786490533974 1.809733527346701 0  1.394462294642221 1.936772446109015 0  1.222794380434274 2.049470437230284 0  1.042083394069578 2.147017519117397 0  0.8536703798128202 2.228646503694902 0  0.6589165704363561 2.293775009519753 0  0.4593003908047701 2.341937782833563 0  0.2562713924844165 2.372750310144281 0  0.05134476780168794 2.38600177156948 0  -0.1539587368152494 2.38157749877371 0  -0.3581132409721304 2.359518459431703 0  -0.5596217371452832 2.320009744058908 0  -0.7569890972825457 2.26330077156298 0  -0.9487520469734387 2.189848188130325 0  -1.133490711618499 2.100182732969217 0  -1.309839471255138 1.994978597465181 0  -1.476488744106053 1.874991514170071 0  -1.632198460737446 1.74111405951222 0  -1.775829716756675 1.594356617614516 0  -1.906314888906043 1.435796370440337 0  -2.022693436958535 1.266612396324929 0  -2.124091152389752 1.088043572660178 0  -2.20975181569618 0.9014097349461929 0  -2.279058511967384 0.7081114284615001 0  -2.331497392622482 0.509571173117686 0  -2.366669424413189 0.3072611338334972 0  -0.0009377933507593757 0.18554729326362 0  0.1038717454164365 -1.616467163696368 0  -0.708791116886116 -1.467639969491793 0  0.8206705373465706 -1.406587602891374 0  -1.357828441343452 -0.9418184542810939 0  1.398608766841963 -0.8838438825149771 0  -1.655750082503961 -0.3027219002595802 0  1.669159209684492 -0.2317447689188941 0  -1.666451044328681 0.4201104717957536 0  1.648495420774024 0.491940670344554 0  1.311899910833072 1.154078847869445 0  -1.359489406181224 1.095789664164909 0  -0.8024462745824127 1.567550538559443 0  0.7477063661028547 1.594492005487647 0  0.1162529310387879 1.76773448544595 0  -0.511770563043547 0.09402974518690781 0  0.515538477088511 0.1639845376848532 0  -0.3097398325153911 0.5678243727122151 0  0.2403920726684004 -0.2480419500136626 0  0.257092787399099 0.6004024879531269 0  -0.3599415755839308 -1.84456012654064 0  -1.223458853382363 -1.429893271282881 0  -0.3831439233448251 1.854338668092744 0  1.317370550170426 -1.365389138931307 0  0.6119543849418085 -1.827235899855092 0  -0.2370130410101736 -0.2795986365071541 0  -0.8827886245605 -1.036982128825825 0  -1.78255643535061 -0.8213612462054418 0  1.807513582650092 -0.6622960123923287 0  -0.1981235120218228 -1.282186433573686 0  0.9352134793025596 -0.9707845963585935 0  0.3910003285688246 -1.240857286868927 0  -1.974403906968842 -0.01073021686492321 0  1.928379116391229 0.1462927102964699 0  -1.811262477219058 0.8161853993629195 0  1.698713607150912 0.9416160454672194 0  1.290746240474013 -0.4727500908946902 0  -1.264807967445994 -0.5120127272102938 0  -1.232908530641447 1.518281113602455 0  1.175908853165359 1.569168103092288 0  -0.000609338093243754 -2.000475022265289 0  -0.4272917443800701 1.465047679670079 0  0.4743883530875038 1.946544130245206 0  -0.7497307901614899 -1.859032347214794 0  1.100443314111897 -1.684709969877684 0  1.43398565002858 0.1121670374764409 0  -0.5223819074195379 -1.132820712908565 0  -1.414528335960723 0.08277185444845113 0  1.306671072384266 0.7264098291854304 0  -1.436935251564664 0.7180782628283814 0  -1.567229032163448 -1.267244984659406 0  1.638792115713043 -1.178182633406792 0  -0.9799338764982043 1.205692133202854 0  0.9129482773466324 1.217483859567261 0  -1.965167873350958 -0.507696325880668 0  2.001572127148489 -0.3694179882899341 0  0.3779356437365868 1.477890624836992 0  -0.7404750676305939 1.916632621374922 0  -1.702457038889277 1.147965705626886 0  -0.09224590814995674 2.046190167393994 0  -2.015458911460238 0.3424636947037546 0  -1.004514838339782 -0.7339081145464778 0  -0.03948545134502279 0.8050712355344055 0  1.92840700420749 0.6992022781525825 0  0.5697280761782839 -0.1851291835768314 0  -0.6283166087010675 0.4108184073633994 0  0.5893334936533112 0.4976053159928382 0  -1.140136729065823 0.8456278788672613 0  1.553349253376002 1.380260582942415 0  0.7945771792682189 1.91590531370409 0  -0.9850424477391473 -1.642054025457633 0  0.3379953955424744 -2.02823686529181 0  -1.320725757374815 0.3969516432411009 0  0.04735210665917108 1.456119611042415 0  1.306188141405365 0.4005359859277635 0  -1.043203080181899 1.788708041050227 0  1.065947507220951 0.9330726318014823 0  1.028544534190749 -0.6740826314988552 0  -1.270551339734694 -0.2058315821652173 0  0.670890269571365 -1.126848227210952 0  -0.5823382701257185 -0.2246322535444809 0  0.01331838897516584 -0.4757539152281764 0  0.08684027136463598 -1.157649205093619 0  0.4166316649150062 -1.564752419956693 0  1.277947681289761 -0.1693007454408865 0  -0.6754556087730921 1.272211153261599 0  -1.499467615859573 1.374067869025708 0  0.6192587671104407 1.290979722196369 0  1.857332115462679 -0.9635532937961242 0  -1.57604451248917 -0.5907913770494986 0  -0.1596403935020883 1.664623538204879 0  -0.1916992224155055 -1.588418658365577 0  0.1997941858620374 2.04724060253985 0  -0.01985318145249439 0.4764788272924503 0  -1.68097937016317 -0.02492745053682014 0  1.91625344853053 0.4210187385035248 0  -1.257401160165809 -1.708555521792576 0  0.850701537519308 -1.959571025724029 0  -0.4482213954936827 -1.384290357668802 0  1.207992310944699 -1.094678427307501 0  -0.008931267167522338 -0.1024604916888316 0  -0.242305150364197 0.04159612255507095 0  -0.2457596447528562 0.310125326268019 0  2.109576321232502 -0.09728051161754747 0  1.582793597597538 -0.4902549608722648 0  -0.7642166177829292 0.1132510306844268 0  0.7466940806466636 0.27270374616424 0  0.2273142905379079 0.8579841
[...]
<PointData  Scalars="f_3211-1"> 
<DataArray  type="Float64"  Name="f_3211-1"  format="ascii">3.4344779653201457e-01  3.3327850697838318e-01  3.2817531360376428e-01  3.2607936661792886e-01  3.2627837389905201e-01  3.3638088327654730e-01  3.3804234893387630e-01  3.5415330552436208e-01  4.2084935682154978e-01  4.3391423712327276e-01  4.3187321947348034e-01  4.0842810875730573e-01  4.1575893621163457e-01  4.1902173691169164e-01  4.0581742227586215e-01  4.1696366663410339e-01  3.9562823196798841e-01  4.1148390984844396e-01  4.3464404865332551e-01  4.3392796938904804e-01  4.3263978049216406e-01  4.3030992062307860e-01  4.1397200139792928e-01  3.4519066173608720e-01  3.5044319557394166e-01  3.1224954800517052e-01  3.3003694876584844e-01  3.2260770611522710e-01  3.4633066082113700e-01  3.3330260159078101e-01  3.2726149194299525e-01  3.3102639143444096e-01  3.5646850701179228e-01  3.3035254445651879e-01  3.4924678674521314e-01  3.4373392756612081e-01  3.5355956604339750e-01  3.5816244970705385e-01  3.5387221337842140e-01  3.6234386722501732e-01  3.5976113152513800e-01  3.5661206098400289e-01  3.7585733554776746e-01  3.5410008806716375e-01  3.7745968100718508e-01  3.6129389936316886e-01  3.6556378587842209e-01  3.6438813555611499e-01  3.6652695103993305e-01  3.6167920242506929e-01  3.5663130818689787e-01  3.4949920500620113e-01  3.6263684472769125e-01  3.3522545640522089e-01  3.5032208718833718e-01  3.5234892289859754e-01  3.4144501119918358e-01  3.3775309525953434e-01  -1.0283692961379676e-01  -4.8352155159888478e-02  -4.2089012124171724e-02  -9.3109427184722218e-02  -4.0901859495582726e-02  -1.0392907805190259e-01  -4.4402833760796692e-02  -3.9804054979896052e-02  -4.2266615475415291e-02  -1.4094852173843587e-02  -3.0815201419596754e-02  -1.9239628708154644e-02  -7.3259428870064633e-03  -1.9888659623650173e-02  -1.6256512722047159e-02  -1.4304520389674100e-02  -5.5176730817500007e-03  -6.0616341212656605e-02  -1.0725476990607562e-02  -6.5829127323084699e-02  -5.9826165986992599e-02  4.0489137342544849e-04  -5.9192583694146109e-02  -1.4923908266444828e-02  -1.9384108124844014e-02  -1.5344356225858755e-02  -1.9909748809747649e-02  -3.0425823486265373e-02  -3.2178846350870441e-02  -8.6869598459671821e-02  -7.9683679351197259e-02  -8.8820950937056511e-02  -2.3818447998850825e-02  -4.4832242392616475e-02  -9.5168511809412576e-02  -3.8341566221740550e-02  -4.5876480207692388e-02  -3.7215854395043352e-02  -9.2085576201203362e-02  -4.5977014966935979e-02  -4.4693879136774819e-02  -3.2794683539338891e-02  -4.3187941804917057e-02  -2.2326504613888229e-02  -7.5209693375598893e-02  -2.2196886668791334e-02  -6.2139651530156549e-03  -2.4154234499824425e-02  -1.7024966028560361e-02  -6.6438597282368672e-02  -1.1259247922102348e-02  -8.6256072462834957e-03  -4.9252843703762775e-02  5.2224481174834615e-03  -2.0097324767840317e-03  1.7136198066890328e-02  -6.3674152756554728e-03  -4.9343130831820528e-02  -1.1778445455365758e-04  -5.8046939169775477e-02  -5.7519441039876766e-02  -5.5960221623655174e-02  -4.3270446002079211e-03  -1.0304893103894408e-02  -7.2574994392465814e-02  -7.7558314335733458e-02  -7.7285464711048649e-02  -2.9771695537914866e-02  -3.0066796115281586e-02  -8.3134173067584513e-02  -9.5487513885374659e-02  -8.4179505348983497e-02  -9.1732878203075061e-02  7.9136860535514286e-01  5.6624220659095989e-02  5.1939909137618534e-02  5.0567769242684725e-02  3.2654828598710731e-02  3.2122137568967993e-02  2.3799224828677266e-02  2.4267014560604525e-02  3.1029747595175274e-02  3.1582264533887960e-02  4.6610529540944329e-02  4.6035125403556976e-02  5.9942605495757126e-02  5.9992881784792229e-02  6.6084189787657038e-02  7.7957410846458408e-01  7.7765094050613792e-01  7.6747151188485840e-01  8.2176761595571102e-01  7.6739735539953913e-01  5.5256585999116460e-02  4.2444968940298720e-02  6.4576116343831549e-02  4.0977620922946822e-02  5.3351169000949196e-02  8.2415238272406000e-01  4.2589552702165571e-02  2.5514310944481557e-02  2.5075567508071810e-02  4.9858382190953600e-02  4.1435516899633408e-02  5.0597272670917168e-02  2.3592836228162391e-02  2.5259266177484977e-02  3.4756606978569714e-02  3.7498351411298897e-02  1.9502970650563785e-02  1.8213968084585013e-02  5.2313963132279012e-02  5.2530075701653030e-02  5.4576175865675591e-02  6.3211317296319527e-02  6.2328726525866129e-02  5.0586200229896010e-02  4.6058253623118037e-02  2.2426531692507214e-02  5.1635987930162865e-02  2.2719209287805932e-02  3.7243324097871455e-02  3.7639004358918260e-02  3.2972188543203836e-02  3.1720204950431603e-02  5.2514834261153581e-02  5.1626768341597233e-02  2.1305415075150391e-02  2.0606601740786892e-02  6.1909076078742901e-02  5.9451229528098351e-02  3.9663408562767601e-02  6.3455814674656330e-02  2.5651444093726553e-02  2.9438174442275523e-02  7.6131284935425758e-01  3.0195775072548260e-02  7.9115076445053589e-01  7.6338187286500736e-01  7.6378183056440330e-01  4.7856195242906546e-02  4.2211325285671161e-02  5.7847708303332614e-02  4.7910841507111855e-02  5.2799168058625258e-02  2.4812514989739583e-02  6.4393323855649456e-02  2.9322229315783051e-02  5.5095550672196854e-02  4.5191444171207004e-02  3.1183102478301656e-02  1.0964380709718986e-02  4.8719213918311459e-02  7.8247136624532554e-01  8.3408355702745618e-01  4.4706008464369604e-02  5.5510702105810716e-02  2.1042259985945250e-02  6.4970126194300482e-02  4.5538219840717063e-02  6.4176292641416888e-02  2.4490559916973825e-02  2.5313428696003722e-02  6.6418902638458774e-02  5.6298197107179641e-02  6.3071171273738499e-02  7.7442940704390695e-01  2.5054854675008339e-02  2.8009276558815365e-02  3.9577071061723486e-02  4.6950389311025027e-02  5.3195549395643173e-02  3.9438582925254852e-02  8.0988804568103578e-01  7.9763484731025358e-01  7.8028194115879679e-01  2.0024828484317841e-02  2.4791080503083294e-02  7.3986963539014705e-01  7.4838710250044493e-01  7.4887724535068956e-01  7.4006919191770615e-01  7.4849371797313580e-01  3.0693693994383413e-02  8.3398488145921013e-01  4.9613723715478425e-02  7.7998223469606942e-01  7.9834547616785556e-01  5.4347659371632773e-02  5.1408441028755067e-02  7.3884213622991468e-01  3.4275863378571483e-02  4.7217258622990851e-02  3.8037767842152966e-02  5.6386760920780356e-02  5.1286442437307823e-02  2.5217584808505198e-02  6.0931631998781419e-02  6.9276147275691688e-02  3.7610056192236847e-02  1.8151825809831903e-02  4.5655605434907619e-02  7.5239515546809266e-01  6.3064289058558584e-02  1.8692016688338958e-02  3.2659635590942808e-02  8.4849861970704066e-01  2.0615004506109730e-02  4.1025512489480331e-02  4.2489291139228891e-02  3.7357885603302707e-02  2.7008538261982830e-02  4.4551011301059616e-02  6.6625289248661262e-02  2.9239193005782531e-02  5.2747767568688889e-02  2.7558690146188558e-02  7.2772962235594540e-02  4.9855063617129526e-02  8.2871014185386871e-01  3.6014540424693937e-02  4.8424708157976559e-02  4.6955497209844529e-02  6.4710115106652408e-02  8.5260900385860106e-01  2.5035326091069929e-02  4.8613847394246922e-02  8.3266987306225324e-02  1.9255052047207181e-02  5.6253485323944967e-02  2.4407027054505471e-02  4.5855295874290360e-02  2.8799666554581427e-02  3.4513182810773688e-02  5.7001757027073871e-02  4.4541685737663587e-02  2.3061529217525058e-02  4.9840698184188646e-02  5.3374966359248294e-02  3.1280592583047974e-02  5.3058713424953524e-02  2.6853841077700037e-02  1.9678441868509745e-02  5.6883361349344783e-02  4.8954419772735264e-02  3.4668934517684311e-02  4.1198818712052068e-02  2.6688616585278400e-02  4.2088693882641706e-02  7.2654239371670135e-02  5.2631573767830474e-02  5.7412528102411382e-02  6.1843035735297112e-02  4.2803250366369394e-02  3.2136284702359685e-02  2.8943194203130379e-02  2.1495986369146500e-02  2.0078988699046441e-02  5.6548458701301471e-02  4.9846248199097887e-02  2.2271570166514640e-02  4.3368116917113279e-02  8.0340120512323576e-01  5.2051982754719998e-02  3.6993312139806223e-02  2.1971653715948662e-02  3.3323202746187511e-02  2.1213615414976454e-02  2.3278370917528407e-02  5.4072642416338114e-02  4.8014969362499868e-02  5.6517657241140169e-02  1.6986234917429718e-02  2.4343673125865797e-02  3.4764620836610555e-02  3.3279898951565433e-02  4.5979217017997578e-02  5.5928886702177300e-02  6.3485009629951322e-02  6.2965745200255274e-02  4.9026501505184054e-02  3.5015707185062708e-02  4.9026328389195947e-02  2.7911297158231926e-02  5.3190090029651381e-02  5.0923912999411680e-02  2.7651596012923607e-02  3.8061026358441330e-02  4.0461827468394163e-02  1.5123886702416980e-02  5.6923443470252910e-02  8.1323459966510872e-02  4.5112202399627425e-02  2.1159589959794840e-02  2.8000521785992695e-02  7.7409943588217878e-01  3.8111352078480633e-02  5.7068365427879998e-02  3.2693043285269091e-02  5.8701095135970230e-02  4.8896317756592825e-02  5.3678590790247740e-02  5.8262983414146520e-02  7.7226176242396638e-01  8.9534263389179691e-02  7.8422249417193723e-02  3.9069171664973479e-02  7.7196869852862182e-01  5.1475355795090487e-02  5.8114243032986568e-02  2.8067833095067572e-02  7.3220082575044454e-01  7.9269865601283962e-01  6.4867966471382668e-02  6.2426873611386741e-02  7.4122858958032473e-02  4.3337331035842468e-02  2.3160435208071786e-02  2.4474758591121134e-02  6.2966719787836190e-02  6.5089951450986380e-02  2.2231955624400154e-02  6.5671915529978059e-02  1.1914858324513380e-01  2.1508598475180194e-02  4.2230311442213939e-02  4.2279966076690476e-02  1.3567859265515252e-02  7.1919719074807742e-01  2.7048503641003259e-02  5.5327184321810739e-02  1.0353920000999886e-01  8.2322824734914246e-01  2.5847054806073858e-02  5.3729272454881058e-02  5.5902991162681083e-02  1.3553686611250582e-02  7.0772450463191250e-01  7.1338396770153323e-01  6.1571235707429374e-02  3.2201844909810200e-02  5.8349365395143224e-02  7.6502234608011321e-01  1.4991587844250052e-02  7.1488060040795176e-01  2.6214543720948242e-02  3.7223477819178265e-02  5.3407846596699282e-02  4.5358365003443014e-02  7.1419935404288304e-01  7.0775554275511798e-01  2.6129699347227597e-02  5.6405781792191793e-02  3.8002110223851908e-02  3.6764489985800619e-02  6.2486905149388906e-02  7.6280295291135991e-01  7.6271063968083819e-01  2.6876939282339942e-02  4.9360299975254172e-02  2.8598644893795832e-02  4.5668045002873456e-02  2.9054547771445314e-02  6.4486079785420120e-02  7.6792727811167660e-01  2.4348328803852685e-02  3.3450625879064527e-02  6.9331012560921645e-01  4.3822836981685903e-02  2.3906554838556568e-02  1.7627732947516284e-02  1.3066462488804291e-02  7.6450904846130818e-01  8.0915848673950685e-01  3.2278865178556312e-02  4.3669997240268064e-02  4.9917890056099493e-02  6.0694520801777216e-02  2.4131796440545680e-02  8.6883206063067292e-02  5.1590807569939279e-02  3.7849118659423517e-02  3.2299535968080648e-02  4.3638630417987267e-02  8.5697282162856125e-01  2.4649610525790028e-02  2.2740988330982554e-02  7.4582543356722886e-01  6.5227244147116170e-02  5.7521388334214579e-02  3.0096973647476873e-02  8.4904846301832038e-01  7.6743739218000506e-01  2.4547783873080493e-02  4.7246232340424132e-02  1.7602777086365633e-02  3.4168632952738059e-02  5.4464128618315531e-02  4.5871174530739314e-02  3.1134678715596036e-02  7.8479072913889270e-01  4.3278180112538332e-02  7.1516394601354127e-01  3.0446281535066917e-02  8.3407395517736249e-01  6.8924072614180409e-01  5.7485015449651844e-02  7.1110332804461718e-01  5.4256643312982800e-02  7.5815205080932882e-02  3.9248666287985165e-02  6.0733063322518571e-02  8.3818053213733057e-01  7.5184068383906330e-02  6.3525398236181002e-02  8.0897779814749238e-01  4.7820151535219457e-02  4.5397760632487412e-02  5.2098269169912309e-02  3.3554901334192061e-02  3.5579281543837347e-02  3.8862117524384274e-02  3.2240764248002443e-02  4.0700241766022466e-02  8.1636166447257269e-02  1.1954318691465864e-01  4.7222133948997089e-02  4.9105252824437368e-02  3.2936995799397149e-02  4.8429714512117902e-02  5.4213588334955293e-02  5.5197756027846323e-02  5.3702066347427413e-02  5.6351627264618433e-02  5.9623510017213881e-02  4.8325143234335101e-02  7.1549101668050369e-02  3.3906224121247067e-02  4.9869975458728975e-02  4.5994026501069686e-02  1.8820788191475400e-02  9.4170474371741156e-02  7.7436724470760510e-01  7.8167518584068452e-01  1.8243642295678705e-02  4.8631765449814471e-02  2.2680581306863346e-02  2.3026218350672617e-02  4.3986614368006965e-02  4.5976267524329872e-02  8.3967560793421403e-01  6.5846077252288318e-02  1.3303273423921649e-01  6.9016712948245004e-02  5.7824446740789175e-02  4.8956609045155301e-02  1.8039323552235483e-02  3.6864868866729690e-02  3.8267865208447591e-02  5.1239826234577679e-02  3.7720803040918023e-02  5.4373912776019107e-02  1.5507263737401626e-02  4.5603398751696014e-02  5.0515046957197524e-02  1.3547528794461448e-02  6.2125443676353510e-02  1.2880404634892298e-01  6.6312258290345663e-02  7.7776622869968626e-01  3.8006194658863561e-02  5.5397353002395539e-02  7.6587703045662059e-01  7.7629827201242385e-01  1.3228295254973446e-01  2.9022317021519792e-02  2.1673037837594132e-02  2.5671635910580640e-02  5.6492691924659451e-02  7.7238307168158193e-01  5.4769255753137562e-02  2.8379187264078776e-02  7.8797657411195832e-01  2.3608761781069857e-02  5.8333066530894498e-02  7.6736503447801763e-01  2.1833507390299951e-02  6.7878590718476073e-01  7.7380873023324703e-01  8.1751112976304718e-01  8.0932915910365821e-01  6.1415478886964421e-02  4.6734419597778645e-02  4.9191221520796684e-02  4.4657129677343393e-02  1.3251099154552645e-01  7.6768212572662453e-01  4.1823543126066585e-02  2.5968707448174491e-02  2.2293661629881008e-02  7.8322409191908271e-01  7.8978872720664262e-01  2.8980841285823473e-02  5.6262651724555898e-02  1.6118204603135466e-02  8.0124153240760465e-01  8.0030348144461738e-01  3.4466189651398881e-02  4.2594219270054863e-02  2.1657169653440951e-02  1.1469700234516744e-01  4.8986887060913122e-02  4.6110582724736442e-02  4.2852910914871534e-02  2.7329816774147839e-02  5.1434819091962306e-02  6.0480168318766778e-02  7.8770276188170418e-01  3.4476043380413310e-02  6.3432117000379562e-01  5.1863585739456687e-02  7.6493258979182840e-02  2.8549722530301608e-02  7.9015016065632038e-01  1.2723214057194206e-02  3.5848029328906912e-02  3.6185781435627985e-02  4.4459331307840119e-02  2.7569194720825647e-02  2.5242160500052273e-02  2.9648898814132407e-02  2.9134965937053291e-02  3.9571972349083655e-02  6.5494500246094683e-02  6.7411102172805257e-02  5.8242312774450633e-02  5.1248883226124205e-02  6.3864915746895373e-02  4.9587243542110727e-02  6.3404785490201024e-02  5.0904425955990630e-02  1.2207960871074826e-01  4.9124426315225317e-02  5.6040184089592139e-02  3.9466118386437155e-02  4.0472106198369565e-02  7.9304607674723027e-01  4.3338962382264964e-02  4.4796608792021957e-02  7.6024727667698844e-01  5.4750546353983222e-02  5.2736771553199495e-02  4.3981446403154677e-02  1.1733690662910680e-01  2.9890194538048188e-02  1.2552418347509842e-01  2.4024611902420803e-02  5.4915479485691025e-02  2.5528934617033022e-02  2.3756733818658018e-02  6.3656967177504198e-01  3.4172679539791063e-02  2.9727231570324537e-02  2.5264609753561196e-02  4.8616082592085955e-02  6.3614820303869890e-01  6.2916965126025529e-02  8.1792062288239398e-01  7.6470144828340925e-01  9.6318544248233190e-02  2.0876847564691277e-02  1.9057977529949276e-02  1.9338219947598954e-02  6.4016394102345420e-01  4.3241831144785907e-02  5.3187428538363682e-02  2.2125266610440775e-02  2.4458649595402535e-02  2.5465491226274221e-02  4.5797213759810058e-02  7.3757824999101917e-01  6.2767983667674221e-01  2.4078494808626658e-02  6.3696345724708514e-01  5.0610425395805209e-02  2.5848253799207400e-02  4.3571793084844108e-02  4.1935355180212269e-02  5.0226532732066814e-02  2.1896898730973037e-02  2.9280752495695412e-02  7.5770272598735722e-01  2.6158212990842009e-02  3.6081217962098511e-02  7.7287555959016330e-01  1.7732021604883567e-02  1.2144094383269466e-02  2.0816899438707837e-02  6.4022531295096863e-01  4.6130340145481667e-02  2.0847271654054360e-02  1.4905416253583771e-02  5.4468451198418963e-02  7.6904433903251634e-01  6.5233368839689632e-01  -3.5326394312268352e-03  3.4343494907824908e-02  9.9677195295136356e-02  5.4566178526368372e-02  4.0577928643794857e-02  6.4046502108907977e-01  8.0316273048353815e-01  5.1356863881103734e-02  4.2960178874199277e-02  7.5434203394349264e-01  5.7502837823072703e-03  7.6457036476289586e-01  4.9671915391462249e-02  8.2180352665156498e-02  3.1233456760873211e-02  8.0872637820319604e-01  8.2748245189272807e-01  1.4205035899626359e-01  6.1196055799261823e-02  6.3447328578843540e-02  7.6575590848228081e-01  7.7937941402035926e-01  3.1022387147952354e-02  4.0524519256076176e-02  2.9637311177927939e-02  2.3883262214373934e-02  2.4800802447848859e-02  1.2421340059558616e-02  7.5624053743727004e-01  4.6993871226030569e-02  2.9245094661049097e-02  5.1171083440094585e-02  7.6167615756592943e-01  1.6108039768695331e-02  1.6828528543607983e-03  4.3818805838998567e-02  2.5815516673644453e-02  6.2416824631314705e-02  2.8429847716790257e-02  3.3554955245140961e-02  3.2294351968574227e-02  2.3149591542084319e-02  5.1321292266467491e-02  7.5420083000537019e-01  5.2747780960177383e-02  5.5037272286745285e-02  5.3131107751216156e-02  5.3262669306145587e-02  2.6303245679333724e-02  2.7339726107372835e-02  3.3021569975236975e-02  5.9390094743231876e-02  5.1112391287047809e-02  2.8115229523204163e-02  4.5830951907160598e-02  5.6404872708315776e-02  4.0843047487047535e-02  3.6099892937793795e-02  4.0438521379615330e-02  1.4033301828781006e-01  2.6728070032057499e-02  5.8443557311755365e-02  5.5223174704983988e-02  5.2830552451085519e-02  5.7170652030421404e-02  2.8919001557496979e-02  1.3310274062976921e-01  3.8969694667738843e-02  1.7773402187395947e-02  5.5448701159156892e-02  9.1399080707444069e-02  3.7869433967142430e-02  8.9457543332182990e-02  3.9821780998574120e-02  4.8274596498150704e-02  4.2731705967364988e-02  5.4231485936653501e-02  1.5070871437178360e-01  1.3838180390156610e-01  8.1712873336477743e-01  4.5709342799256508e-02  2.4088228013110190e-02  4.8466506560799309e-02  2.0722397007753055e-02  5.5237676733667571e-02  4.6203374208700514e-02  4.9387684588309562e-02  7.5478134914883999e-01  2.8394102285333716e-02  8.4901903252953853e-02  5.1146513754046156e-02  4.3952171448206616e-02  3.9156017052508880e-02  6.1851235437817301e-02  6.4173698535126097e-02  6.1832033253539531e-02  7.6919065135867537e-01  3.6220107151049188e-02  9.3955928260536323e-02  9.5566370380283788e-02  2.6368752041685286e-02  1.3560241813755316e-02  1.3331670211127062e-02  6.0686483893962688e-02  3.0013147085882187e-02  4.7967755996467749e-02  3.3030546459536743e-02  3.3530338995999096e-02  5.4124832627081114e-02  1.2253658400976916e-01  4.7045491292925470e-02  6.5635295445466091e-02  5.5537505640440035e-02  5.0344361681350973e-02  2.4170912072612565e-02  7.5495786948003643e-02  6.3252052580757334e-02  5.6830211646716068e-02  5.6079630451639412e-02  6.4953362585187760e-02  7.2162859652838662e-01  8.4198366109316514e-01  9.4079579119474732e-02  1.9462538832152196e-02  5.3188816502855500e-02  4.0947478016336636e-02  7.7362674496852357e-01  1.3953479724636267e-01  4.3520109939287982e-02  4.0953197503047538e-02  4.0162514883691824e-02  5.3122134557963108e-02  6.5456148212396981e-02  6.3939499406704126e-02  6.4374624523651322e-02  2.2957275847770308e-02  1.6834478736150210e-02  1.6724761361145109e-03  1.5325165015006392e-02  2.1520828994120094e-02  5.8635970254816552e-02  4.3379864547630195e-02  2.2544298270984083e-02  9.8038285576567671e-02  5.1395003563353012e-02  2.0292537861168532e-02  2.4459462048540839e-02  2.6889713955955425e-02  7.2520984158488933e-01  4.6252454889375690e-02  1.2910400414269110e-01  3.6924494527950644e-02  8.3936862832230852e-01  8.5305845214314491e-01  2.6843104856684830e-02  2.0584921661965121e-02  4.4704264868017783e-02  2.4889586941532840e-02  2.7827692535332238e-02  1.7554938572170831e-02  4.6227984684134034e-02  4.9856917699142876e-02  8.0691118770428272e-01  1.2368876457