<?xml version="1.0"?>
<VTKFile type="UnstructuredGrid"  version="0.1"  >
<UnstructuredGrid>
<Piece  NumberOfPoints="1417" NumberOfCells="2668">
<Points>
<DataArray  type="Float64"  NumberOfComponents="3"  format="ascii">-0.9957245640160993 0.2652516088405378 0  -0.9892074031239041 0.1536475400447186 0  -0.9697672033852727 0.04292250473694004 0  -0.937534907892546 -0.06540923979216121 0  -0.8930664036331815 -0.1693221007639413 0  -0.8368735260233531 -0.2677613602275878 0  -0.7700756625565232 -0.3590279245192172 0  -0.6945071285958592 -0.4407543205934807 0  -0.6124178947529766 -0.5120753172371856 0  -0.5284847101379584 -0.5706632215290661 0  -0.4433830127217938 -0.6183489391531802 0  -0.3553421598441517 -0.6569404706372995 0  -0.2655103426872373 -0.6864836323569309 0  -0.1744033661626616 -0.7072645939911504 0  -0.08455391209127211 -0.7190864879833617 0  -0.001682234190486553 -0.7224563463140995 0  0.08143325200285575 -0.71864034102143 0  0.1700261447666079 -0.7064424262436338 0  0.2598847193747323 -0.68552341460489 0  0.3488912159405139 -0.6558336144532523 0  0.4361361965648751 -0.6172947278119412 0  0.5205096458626631 -0.5698918949668959 0  0.6030537678819906 -0.5122831387746025 0  0.6824867894633302 -0.4438375637166476 0  0.7579891087521381 -0.363298326201304 0  0.8254777077730474 -0.2727801173929641 0  0.8825627391663102 -0.1746725240708198 0  0.9273879601200569 -0.07185411035177328 0  0.9605274521913724 0.03637223299168325 0  0.9809371303131578 0.1481160520244199 0  0.9881878879917027 0.2591743597754341 0  0.9827179722112207 0.3707091709594545 0  0.9644936188528589 0.4811289411803631 0  0.9337242522529299 0.5886021375997538 0  0.8916096058876226 0.6903324294866789 0  0.8379164109590839 0.7870871288443441 0  0.7737495880973843 0.8770193355993153 0  0.6989923977797913 0.9601610787104169 0  0.6163381219495346 1.033525518458716 0  0.5258899454342196 1.097266940422887 0  0.4287072112721206 1.150668142127202 0  0.3263982819794807 1.192782210059712 0  0.2203662356687274 1.223266120075889 0  0.1107789696459389 1.241992891715885 0  -0.001029751844076522 1.248391780982466 0  -0.1113009046469872 1.242555856365158 0  -0.2206623207097601 1.224508340830153 0  -0.3280092334256176 1.194186156929456 0  -0.4306965423016628 1.152406537761426 0  -0.528046047952297 1.099550222736194 0  -0.6184563205624973 1.036559641701707 0  -0.70191791853414 0.9633719977661481 0  -0.7762533967751933 0.8816878010170286 0  -0.8414828097394187 0.7915319537399589 0  -0.8958634756198807 0.6950381762871236 0  -0.9390420040876151 0.5925528073725518 0  -0.9701911480496783 0.4865841650766169 0  -0.9893135000646694 0.376520838121945 0  2.670784032485898 3.392700900221928e-07 0  2.662961632852603 0.2044468535541729 0  2.639482611715891 0.4076910354664831 0  2.600528672998886 0.6085463104316355 0  2.546317982229737 0.805827719172409 0  2.477158434000535 0.9983820253549878 0  2.393464901613346 1.185078806129586 0  2.29572514100545 1.364818427182547 0  2.184512854979036 1.53654945603082 0  2.060482764484212 1.6992671954509 0  1.924372229613254 1.852015762930092 0  1.776940744757839 1.993879721637442 0  1.619114070956287 2.12407131823512 0  1.451758709370764 2.241776725460747 0  1.275900048925352 2.346327147592297 0  1.092539195083199 2.437115418998927 0  0.9027806994810653 2.513595837072259 0  0.7077097374859433 2.575313694505672 0  0.5084938171091746 2.621932117473697 0  0.3062932397706241 2.653179945686822 0  0.1023003640845013 2.668829749581922 0  -0.1022938351960612 2.668841007270838 0  -0.3062953067231879 2.653167139625865 0  -0.5084902075673431 2.621950060091893 0  -0.7077086165581402 2.575316247309725 0  -0.9027719677488155 2.513584501325612 0  -1.092547666187913 2.437111939261654 0  -1.275893414325294 2.346330484502781 0  -1.451762240483971 2.241781170171584 0  -1.619103499590742 2.124069812812623 0  -1.776952594164562 1.99389158826644 0  -1.924363948400758 1.852021560747486 0  -2.060491588688754 1.699279484539905 0  -2.18452689748048 1.536557813348495 0  -2.295727227884108 1.364820348460049 0  -2.393479077036744 1.18508008737993 0  -2.477159543463966 0.9983830605369903 0  -2.546328470884173 0.8058350149958396 0  -2.600542733371222 0.6085497480888702 0  -2.639483368658835 0.4076909114465292 0  -2.662960010967624 0.2044519039499667 0  -2.670780504377397 1.928069695371068e-07 0  -2.66294450244174 -0.2044490088629496 0  -2.639482534906787 -0.4076967022620353 0  -2.600541287065246 -0.6085470256469309 0  -2.546325596725032 -0.8058381158275786 0  -2.477168332162051 -0.998390891435468 0  -2.393476582535104 -1.185081732314431 0  -2.295735186520382 -1.364830423910388 0  -2.184521051797763 -1.536560956277872 0  -2.060491118819954 -1.699274555575293 0  -1.924366216630939 -1.852018903552679 0  -1.776956095130589 -1.993888219052866 0  -1.61910531955081 -2.124067133218752 0  -1.451753143904588 -2.241766129985118 0  -1.275889735256182 -2.346331493274255 0  -1.092536638883262 -2.437113615232735 0  -0.9027794458214914 -2.513592713027932 0  -0.7077156015161907 -2.575326498863366 0  -0.5084932691273483 -2.621934086875905 0  -0.3062935921411238 -2.653178991205027 0  -0.1022978613361618 -2.668827804492342 0  0.1022956866875368 -2.668839593126618 0  0.3062983159003852 -2.65317808128417 0  0.5084936137439834 -2.621933590472959 0  0.7077162301040404 -2.575326288327092 0  0.9027776120407471 -2.513598109688034 0  1.092543158948468 -2.437111646834979 0  1.275889176205694 -2.346332500681104 0  1.451752933487839 -2.241767024362894 0  1.619105451172629 -2.124068716138387 0  1.776952241975888 -1.993891109120203 0  1.924366834178766 -1.852017725602107 0  2.060488411940316 -1.699280506471844 0  2.184527051211843 -1.536554213410462 0  2.295734722822604 -1.364828336303729 0  2.393476350117907 -1.18508416493158 0  2.477157759681155 -0.9983822243876328 0  2.546328228890421 -0.8058271026585723 0  2.600541507489981 -0.608550095873273 0  2.639495176669739 -0.4076944577269576 0  2.66295844414894 -0.204454891823007 0  -0.00502767272989715 0.271691998708293 0  -0.1274361081565616 -1.693304982725333 0  0.8673794641607933 -1.48363194526728 0  -1.062262096044142 -1.362889329187949 0  1.543388478473214 -0.852167103085089 0  -1.672071506408583 -0.6147383264727899 0  1.815577623204061 -0.06650161683915139 0  -1.82997179678983 0.1938891028672704 0  1.720449985490261 0.7523454318629526 0  -1.622016625314411 0.9772856126210735 0  1.280309577969405 1.434718728455496 0  -1.136227249497548 1.566698588975855 0  0.5972532070526454 1.863026660790739 0  -0.4648525809293444 1.901402042119668 0  0.4546677836273351 -1.971961929914659 0  -0.7323610895503493 -1.897786671713347 0  -1.655978014708998 -1.267482136367046 0  1.45481394390936 -1.516956119099764 0  0.06280317734869789 1.783359813577245 0  0.3237382460910939 -1.423388524294858 0  2.037599367561032 -0.5726274833765613 0  -0.4726906597828188 -1.250834060852091 0  0.4903013306801011 0.357066421123949 0  -0.5061883162542362 0.2508814819098547 0  0.9526612409716941 -0.9534492512014254 0  0.2951848815100794 -0.1050210901029822 0  -2.121626494740387 -0.2541386500990533 0  -0.260849367758051 0.6915091818724263 0  -0.215186049300441 -0.1579648629685464 0  -1.129826987708347 -0.814587606004553 0  2.106667386589213 0.3919423231577358 0  -0.0003487763863641884 -2.185604261881073 0  0.9443143366912663 -1.972764677802061 0  -1.209984113793679 -1.827475728580355 0  1.369280393048855 -0.3689706915987329 0  -2.052426635975536 0.7240851613015898 0  1.829008380993715 -1.233281890456617 0  -1.443995457781259 -0.1661579039119793 0  1.751598850316339 1.320365247426892 0  -1.994897685352699 -0.9546010586667573 0  -1.655359379210781 1.460327710599863 0  1.087553812074907 1.894091155995584 0  0.1726463273316716 2.226899221387667 0  1.487581269609219 0.297476131347261 0  -0.05681239829051063 -1.24211672925038 0  -0.927873002229066 1.997594967396865 0  -1.463154974112021 0.5048118640276946 0  2.235351160747224 -0.1930687740583249 0  0.2144212832824464 0.7441798740500988 0  1.292830538047124 0.949979987868194 0  -2.252185750587852 0.1414046453004342 0  0.8203637052160366 1.451904749861503 0  0.5302642624086729 -1.073239889924988 0  -1.165772876499246 1.107701954856047 0  -0.8026053600447861 -1.044412578525057 0  -0.6836388205274374 1.511689882696215 0  -0.3615558029825959 -2.028015712818252 0  2.128174296753307 0.7966192660888158 0  -1.996334678001654 1.113577670190225 0  -0.3533164369376989 2.27498557361592 0  1.450489236597265 1.784678304590411 0  -1.337354467037509 1.888394318530878 0  -1.588890220635932 -1.652908871797923 0  1.3025006657605 -1.153807869427489 0  0.3725833004253494 1.56049048090262 0  -1.174340013687235 -0.4487789165048813 0  1.056951316685216 -0.6007743506858031 0  -2.045113625055853 -0.6022195515681521 0  0.5483303325345104 2.241009369904673 0  -0.2565414505077894 1.590501391957345 0  2.090795220882842 -0.9511887026740419 0  0.7031846562081469 -2.228343723389856 0  0.3302472828770237 -2.304891297026253 0  1.321249240562228 -1.881754700356789 0  1.002972650797154 1.146085589778944 0  1.31351442562807 -0.02733191823458542 0  1.302135606490116 0.5909926922815757 0  -0.4756750486995671 -1.616443496267244 0  -1.477147473954214 0.1671211523912919 0  -0.6450992909180122 -2.236520963405782 0  -1.318930621477719 0.8062598776128715 0  -1.319113534167156 -1.121888565788706 0  1.731344387526795 -0.396185739456346 0  0.194150931477649 -1.059304287149236 0  -1.655291123672315 -0.9391862359861951 0  0.6072352466413764 0.02435100623754048 0  -0.5480791176062552 -0.09604640540748501 0  0.04746534650954273 -0.3437407264391091 0  -1.796559389199183 -0.1376757411547251 0  0.6912451705351972 -1.752042411319265 0  0.1399238477989438 -1.880789252745252 0  2.039360870651596 1.13248116768306 0  -0.7463174465553982 -1.450406444755318 0  -0.5863639651303318 0.5762225170726836 0  -1.012496937086874 -2.106843952763283 0  -1.985699501772358 -1.277250689157055 0  -0.1633923307927707 2.014129524859697 0  0.8298356991594978 2.086138926298686 0  -0.6531445611906903 2.162769127223013 0  1.779
[...]
<PointData  Scalars="f_4537-1"> 
<DataArray  type="Float64"  Name="f_4537-1"  format="ascii">3.3693139453230969e-01  3.3785278751965547e-01  3.4683327953435561e-01  3.3272907718277056e-01  3.3052246509436500e-01  3.2457794552088204e-01  3.4008398397970185e-01  3.2073312828046613e-01  4.0132805143602368e-01  4.2400215079588743e-01  4.2811473958311885e-01  4.3660268949060427e-01  4.3478093562287834e-01  3.9446366553988710e-01  3.5759752440251863e-01  2.5536114512955516e-01  3.3090941214959968e-01  4.1156268393681578e-01  4.2747710730163024e-01  4.2513655336382178e-01  4.4096009581422646e-01  4.4132624048935953e-01  4.0294041068710407e-01  3.6748462375555602e-01  3.4743143605055415e-01  3.2620874257322224e-01  3.3545454115291334e-01  3.2182279534025177e-01  3.3471962696405971e-01  3.3723271991381715e-01  3.3474473417661060e-01  3.4418844435600537e-01  3.3724297757835708e-01  3.3796531983034223e-01  3.4073146554717837e-01  3.5563464564275099e-01  3.5224545840305438e-01  3.5386650029796179e-01  3.5983694701256347e-01  3.5738714661839693e-01  3.5643354536000371e-01  3.5647071487235321e-01  3.5947154031120032e-01  3.6627964347253650e-01  3.5322126662290754e-01  3.5166952875625396e-01  3.5519287378306852e-01  3.6972129062887243e-01  3.5664126365481080e-01  3.5341310403276649e-01  3.5316320101519244e-01  3.5903210404922503e-01  3.5138179550639098e-01  3.5224870440377037e-01  3.5678305752539274e-01  3.4114415366590550e-01  3.4999007465196197e-01  3.3206582645297755e-01  -8.7658054764158319e-02  -2.2384368670156557e-02  -9.1694661115339651e-02  -9.2206268672600747e-02  -8.1157119512800024e-02  -9.1343985550379272e-02  -8.6871757667271093e-02  -8.7738214063010328e-02  -8.9298533308504749e-02  -7.7899527949869207e-02  -1.5437700885715827e-02  -1.0091043568184034e-01  -4.7666899968188273e-03  -2.8135632803758363e-02  -2.2930747210472779e-02  -1.9188327224852340e-02  -1.8944103909197388e-02  -7.6167325697029969e-02  -7.5534687701391906e-02  -9.5806454395102724e-03  -6.1032016552292762e-02  -1.3294461200850333e-02  -6.5002220581772158e-02  -7.4996159250697789e-03  -6.8932507939799256e-02  -6.9784894248755974e-02  -1.9627457389985940e-02  -2.3725266060107476e-02  -4.2981322543988402e-03  -2.6093901699736636e-02  -2.4174852490149095e-02  -3.5930892404947908e-02  -2.0739355980045438e-02  -1.9501889079522577e-02  -7.9178102177162826e-02  -3.1038950748131726e-02  -8.5360027342244169e-02  -2.9544450964696236e-02  -3.3163168141658497e-02  -8.8658149198109965e-02  -3.1357464724418263e-02  -9.9356013241442609e-02  -9.6670497377988440e-02  -9.0075317898480070e-02  -4.0698074621403291e-02  -3.7522546211391769e-02  -4.0225630276240855e-02  -4.1064234660785709e-02  -2.8654434482369227e-02  -3.9063146422872792e-02  -3.5034581938970938e-02  -3.3066314855925649e-02  -2.8032445049942591e-02  -2.2569662135117536e-02  -7.5402441559612149e-02  -2.0020619084059735e-02  -3.0451463000150954e-02  -3.3573372232874710e-02  -1.9173411555895210e-02  -7.4236449267322924e-02  -1.5345808388321430e-02  -7.2551438272253341e-02  -2.1421879246817908e-02  -1.5651491820030269e-02  -7.5407959619368803e-02  -2.6367759924093737e-02  -1.2736340284010987e-02  -3.2117419884554257e-02  -2.5245197264907600e-02  -7.3304157935568173e-02  -2.1486673578831741e-02  -2.8183336527822317e-02  -3.4388560944756751e-02  -2.7285982153599713e-02  -3.6869863530703387e-02  -4.0242635081795083e-02  -3.2854331814975657e-02  -9.2251766463698176e-02  -4.6353213842588753e-02  -4.6832793103377755e-02  -4.5706186095364414e-02  -4.4030060301412190e-02  7.8747988156892068e-01  4.1274010219811343e-02  4.2411712408772541e-02  4.0216176977984651e-02  3.5141122615055358e-02  3.1499163460411587e-02  3.0824971652563305e-02  3.2244403908951107e-02  3.5618239051542891e-02  3.9422485367949067e-02  4.4346239433207181e-02  4.7614620383209391e-02  5.1449901373310514e-02  5.2893579486419900e-02  4.3494938541599547e-02  4.2568264577967356e-02  3.5354479838232943e-02  3.9593433817165173e-02  5.4136540250358148e-02  3.4066462979140837e-02  3.0811184310550740e-02  3.1559893448275658e-02  7.7303061699190878e-01  7.7615576814110399e-01  4.2548307127504979e-02  8.0575742500934988e-01  2.9685816550064165e-02  7.6695116878890635e-01  8.0447593518624172e-01  3.3800303041225589e-02  3.1304298114247009e-02  4.1988917544825088e-02  4.1876674747829155e-02  3.9573930692955887e-02  2.6922589464524273e-02  3.4157368319857141e-02  3.4588826297459900e-02  2.6174545544035723e-02  3.8672718993932306e-02  3.0618201644959629e-02  4.1553711194945678e-02  4.7037423582151308e-02  5.1764086723790938e-02  3.0143364889632544e-02  1.2658186188960021e-02  4.9312392636324656e-02  3.2205730700940967e-02  2.8461896238066591e-02  7.6543851766254711e-01  3.8461499959635451e-02  2.9228030638094711e-02  4.7068617740472975e-02  3.9562583600151052e-02  4.1484771278222317e-02  4.1453268589810320e-02  4.9109897226995089e-02  4.2869505264173678e-02  3.1974362422064938e-02  3.5842638604341746e-02  5.0514266061185052e-02  4.2172000708205946e-02  4.4543369488537474e-02  3.5771148782441545e-02  3.9584306327738412e-02  4.6871067274463808e-02  1.6582718040356378e-02  3.0283375277904451e-02  2.9999344075243527e-02  4.9342401558181787e-02  5.2476651003110213e-02  3.0202461227813244e-02  3.9615916261289706e-02  3.9698898232597139e-02  3.9100807302862244e-02  3.6963819577738886e-02  2.4622082442601050e-02  3.4998507772026663e-02  4.1198941781148156e-02  2.7709735219382275e-02  3.9306199342945797e-02  3.6439278320136353e-02  3.7273613405847131e-02  3.1181520474764624e-02  5.2678625695260035e-03  3.3763208004331295e-02  7.7551482234218572e-01  7.7992791485614810e-01  7.9474772565692808e-01  3.0805381028302284e-02  4.3572771048991071e-02  4.3412685437893610e-02  3.3482545208965014e-02  4.0363396231650965e-02  7.5507267533008227e-01  3.8439045996805442e-02  2.9359799663348493e-02  5.3441057523429349e-02  4.8617009059223698e-02  5.0237347932724323e-02  3.3926400787142631e-02  4.5757234313412914e-02  3.8891068152161638e-02  3.2430964615620422e-02  3.4479346112271249e-02  7.5611530287756112e-01  7.5133061020713166e-01  2.6557418777356012e-02  3.1810644420372153e-02  4.9612440930377012e-02  2.5226424852277347e-02  4.2762985688875356e-02  4.2153845300161315e-02  3.8443518844845342e-02  3.6666154367841521e-02  4.1683402958223301e-02  3.5360105192709913e-02  4.0984963144938116e-02  5.2120041320284520e-02  2.6040091142415421e-02  7.7483144321836772e-01  2.7681024757570342e-02  3.0779562612754580e-02  2.5621826220617733e-02  3.7441072024605747e-02  3.3126509086848104e-02  3.2248749100146176e-02  3.7559883688527314e-02  5.2603891715412646e-02  4.1621579812847802e-02  6.2222837691280779e-02  3.1636929869170695e-02  4.0457559306589896e-02  3.4828780358356619e-02  4.2395614376243597e-02  2.5203916630388068e-02  4.0160857837355193e-02  3.5702058322556310e-02  8.4595460155544833e-01  8.4527625765104353e-01  6.6851417122679127e-02  7.7679277287385151e-01  2.6092771936398817e-02  3.0496163801310303e-02  2.2758211221353991e-02  5.0162677605530517e-02  7.7207579780944402e-01  3.3471382179317305e-02  4.4903312510324506e-02  3.0859043969993401e-02  3.0774840829071202e-02  -1.5238040835867167e-02  5.1377342812391917e-02  3.3770437152282416e-02  7.9138650236851837e-01  4.3783355238473952e-02  7.4372937844725695e-01  7.4764753005622442e-01  7.8947206472958575e-01  3.2045692309350830e-02  2.8678133718587937e-02  7.8949432955476073e-01  3.9941442064413760e-02  3.7138412166878673e-02  8.3447547753396545e-01  3.0980968556868483e-02  4.5461509106505128e-02  7.4034723382857248e-01  3.9958910926959905e-02  2.8083200550364822e-02  3.9790024512404973e-02  7.7818067425474868e-01  4.0801425311138388e-02  3.6554135135477131e-02  4.7233079387752092e-02  4.9533566301989719e-02  3.4471805662861697e-02  3.9103932639110411e-02  3.1050001899899569e-02  3.7109664820110473e-02  3.0724259643562599e-02  3.6497583177377758e-02  1.9487973125424336e-02  7.3125225289817020e-01  4.3350862296386107e-02  3.3286718154564424e-02  3.0918121865016041e-02  6.4429861156891255e-02  3.7034423843498351e-02  4.3414505175127766e-02  2.6885627351996164e-02  4.3147486589189404e-02  3.6237995227512372e-02  4.7990536794972123e-02  3.3895173934662119e-02  4.1186564940965308e-02  2.7763295618482266e-02  5.4893548114540058e-02  3.4918931963995335e-02  4.1729546146107910e-02  5.0171631691350006e-02  4.8249334934958130e-02  4.6995391050228506e-02  3.7655948230774158e-02  2.9669795158730132e-02  6.2284402822849312e-02  7.4452639801147980e-01  5.2551512656037171e-02  2.8360711444137984e-02  3.4405760323831393e-02  2.3522014894941039e-02  3.5418165262395766e-02  5.1591057610403987e-02  4.2956158694588353e-02  4.1767598288369123e-02  3.7572224017601026e-02  4.6323101566072791e-02  4.0274604360986690e-02  2.8510123538414266e-02  4.2771457737181794e-02  4.1385911479123301e-02  7.4501756602471525e-01  6.3970173252234766e-02  5.9828494969427999e-02  3.0199819355021688e-02  2.5183518410460046e-02  3.3034449178559140e-02  3.1989249230122203e-02  2.4081235913844493e-02  5.3277231276849558e-02  3.2729854595203299e-02  7.5182013144528448e-01  5.3134449990941073e-02  3.9887290384422305e-02  4.2957539011044106e-02  4.5461253168420784e-02  4.4745168520852655e-02  4.5408446956883584e-02  5.9361971422404229e-02  4.7650069836469008e-02  5.3589120314520955e-02  3.4675528345259075e-02  3.0483401164634955e-02  4.2317959765932354e-02  4.6292311046409892e-02  3.6526382084448923e-02  1.8833093151025389e-02  7.5462284878413888e-01  3.2282861396058259e-02  2.9745066100030134e-02  3.4931965477860538e-02  3.2414422536476140e-02  4.0906282723466747e-02  4.5685881220416391e-02  3.0238255467297113e-02  5.3071964576592037e-02  2.5180928728032442e-02  3.5460750455706291e-02  4.5097012715013027e-02  2.5959162721928070e-02  3.7901096434305934e-02  4.2852498381605000e-02  7.1512272626967827e-02  3.8415063281524581e-02  2.3521387902145800e-02  3.1751255587546511e-02  7.8950630360134166e-01  7.8535744976961086e-01  7.8814650747218462e-01  3.6317824446714254e-02  3.4356837606277620e-02  7.6868677378876382e-01  4.2975502752271050e-02  4.2321438755111622e-02  2.9914422284773114e-02  4.0548236889459272e-02  5.1584353690965860e-02  4.1701607648111386e-02  5.3522083784159985e-02  3.9137301395389346e-02  2.2128761037509524e-02  1.0248596413963468e-01  3.2329197397805993e-02  4.2378107620968462e-02  1.7928606099830588e-02  2.0628439120704212e-02  2.8953721675724482e-02  4.4719998462789991e-02  3.8639266900754643e-02  3.7091558917126212e-02  3.5313375271759456e-02  3.5804153133620696e-02  2.9518745014449989e-02  3.5913423018148052e-02  3.2668761580028426e-02  4.0655111151005355e-02  3.9922790726428570e-02  3.7396266170383996e-02  3.9617007167221753e-02  7.8635131441350453e-02  2.1791166752160494e-02  2.9417372132271587e-02  4.5279636971629067e-02  3.4246770074956003e-02  7.7511870511714528e-02  2.8938790013404773e-02  3.2020226398394566e-02  4.8900764067575452e-02  2.4266537347545053e-02  4.1125223994799870e-02  5.2107771530208548e-02  7.4062491742202086e-02  2.5980049748685820e-02  4.2160784170755590e-02  4.1275382254942539e-02  2.7595674829860087e-02  7.6969146624398377e-01  4.3649775873702008e-02  3.6253972711706710e-02  3.5562073409092010e-02  5.2675740799085165e-02  8.2531485648974168e-02  3.9830854757493074e-02  4.1153048436532537e-02  4.3204364200023715e-02  3.0704683816592877e-02  3.9507273728883449e-02  4.5958888013020206e-02  7.6700831128321612e-01  2.7531976294073141e-02  5.1037799111212284e-02  5.1380314969719142e-02  8.1355277575409501e-01  7.1584394879528146e-01  7.2575984909444313e-01  2.0025483044084507e-02  3.4715341685794904e-02  7.5813718510993366e-01  2.9060830793912553e-02  3.0253897216377345e-02  3.9325818177738670e-02  3.8638929197482387e-02  2.5554274178894672e-02  7.2240832307095504e-01  2.6043617846390910e-02  5.1213401853606601e-02  8.9079185472213468e-02  2.2472051360290225e-02  3.9925929576143861e-02  4.1845410964204292e-02  2.8864329164876228e-02  3.6373166932563990e-02  1.9519642175429380e-02  3.4160709341026323e-02  7.8222495406863013e-01  3.3208743010066225e-02  7.7841679187650414e-01  8.1825802980105278e-01  3.2533111475826583e-02  7.0494752411215345e-01  2.4662959797644501e-02  3.5422172124575789e-02  2.4269683993180600e-02  3.1276852751509342e-02  2.9037492459180088e-02  3.0351710353334192e-02  3.2626874840599916e-02  1.0209766867236154e-01  2.5293189599065426e-02  3.6785305684338417e-02  3.8994009870352814e-02  3.7072359225939690e-02  9.5004910402613565e-02  3.0124991503113190e-02  2.7317290269904152e-02  3.4872843121227959e-02  5.3187930093571187e-02  3.8254291694769377e-02  3.2288814958608331e-02  3.1285673545108354e-02  4.9207723989286536e-02  4.1006395107612816e-02  4.1268350199422855e-02  3.0760786864253393e-02  3.3769021643876178e-02  7.6601915901357309e-01  7.9505903773502240e-01  7.7682644741932849e-01  7.8190354357199698e-01  6.8228547424111075e-01  8.0782439619621604e-01  7.1351157752453986e-01  1.2521899887423191e-01  6.9523556508400741e-01  3.0469032168659222e-02  -2.2522390502939279e-03  2.9524918963523567e-02  3.3149584173089768e-02  4.4469332213066079e-02  2.7024395000598670e-02  3.5498515439179208e-02  3.9322961193547362e-02  4.3573442648178869e-02  3.0913547664358439e-02  7.0625223815322502e-01  7.6730389083474426e-01  6.8374786951681110e-01  3.2580444656245280e-02  2.9780394983064607e-02  4.0387307455055914e-02  5.6791862599259904e-02  3.8982167603598843e-02  3.4022228183388070e-02  3.4816149034657226e-02  2.7565860853773456e-02  7.7935887454222474e-01  1.2151409585618035e-01  2.7921383071193139e-02  2.7596188478328839e-02  5.3604249576602016e-02  4.2993395015518722e-02  3.0610600200296774e-02  2.9174415213211104e-02  3.8838856407278181e-02  3.0702455997734510e-02  2.4303157502225566e-02  3.6071598394607579e-02  3.1408613405918509e-02  3.0755470432606985e-02  4.0562718939939554e-02  2.1009866491906715e-02  8.2464309962487536e-01  2.0231987830048915e-02  4.6961822032609388e-02  6.7657061030987620e-01  2.8079166222439177e-02  3.1727313010838282e-02  3.8245207659195202e-02  3.7658278376079907e-02  2.9569444861020474e-02  2.4535013783581076e-02  4.2049434160964808e-02  4.3626739457860990e-02  4.3213160347492022e-02  4.2704367685649690e-02  7.8699197863768133e-01  3.1732056730079318e-02  3.5284139970334166e-02  3.7160341878270296e-02  4.1147083861621463e-02  4.0995547594161283e-02  4.2813795409198163e-02  4.3230143563372972e-02  3.2617172409192471e-02  3.2864723712174838e-02  2.9497327345169265e-02  6.7610253933505648e-01  4.5083840409140083e-02  3.2853312212708159e-02  3.8957776115439810e-02  7.7275935966429032e-01  7.8601229814896156e-01  2.6101781691470576e-02  7.6064262274992311e-01  3.4429548529234098e-02  3.7057908640723926e-02  3.1362485760761304e-02  5.3521028887849868e-02  3.0221205487323061e-02  3.0207837548195261e-02  3.9648092410368312e-02  2.8755035364390634e-02  7.6643277146990518e-01  2.2923264354398922e-02  5.2408301676637195e-02  5.3347290349691497e-02  4.8886711008550299e-02  4.8755493161542381e-02  5.0289452223129971e-02  3.0846136010996596e-02  3.2871740503392206e-02  4.3674761944769276e-02  5.0167763721436165e-02  3.7389802253118339e-02  3.2630916859015237e-02  3.1532182428075102e-02  4.7241216462993736e-02  3.1615049966481193e-02  5.3795487592721895e-02  4.9171268077151088e-02  2.9750092823172709e-02  7.8473099669685298e-01  7.7351745104124292e-01  4.2050650252982651e-02  4.6984927505553796e-02  3.2672305904969494e-02  3.2740162090276838e-02  4.1321733098193571e-02  3.3174711800417908e-02  3.4151202080138623e-02  3.3008171706705704e-02  1.0787744389700095e-01  1.2161275288639307e-01  3.4693528045286318e-02  4.2808674911677898e-02  4.0996811442792692e-02  4.1114104406883879e-02  3.8952247235675259e-02  1.9612925299379323e-02  4.1789862352853584e-02  4.0788646409901548e-02  3.9394322605203258e-02  2.0777085644907115e-02  4.2752137798149743e-02  2.3621066323532738e-02  8.4027207132772908e-01  9.6705201900560520e-02  3.3773214471232348e-02  4.3463479493376055e-02  8.8416449065202185e-02  8.0680662139622952e-02  2.5057961827180019e-02  5.0014614572521404e-02  3.7528186301324096e-02  2.1924036605307177e-02  7.6382073837554321e-01  4.6172270888794588e-02  5.2485060244078043e-02  3.4707310143775719e-02  1.3384555553536212e-01  3.7901568207467408e-02  2.4503631703317989e-02  4.7190124688494692e-02  4.2627007534820412e-02  4.0389459416109053e-02  4.0688019889513004e-02  3.2080515365521908e-02  3.1641455459941854e-02  2.8015777976396219e-02  3.5309588395668730e-02  8.2645086435227999e-01  2.7889672570166522e-02  4.3455453164510070e-02  3.4836949155937075e-02  1.8402525456944752e-02  4.5725183720980965e-02  6.5332811976497551e-01  7.6972987152316685e-01  3.1252581115440839e-02  2.6710849079377260e-02  3.9924974934608171e-02  4.9319808135735096e-02  5.2116293945593022e-02  1.2928458175905877e-01  7.8124888625452615e-01  7.7399387502428663e-01  7.7047903255062578e-01  5.2651000205537521e-02  2.6151977847020884e-02  4.1573066176365150e-02  4.0956416331044077e-02  4.1739157734262171e-02  2.1727835850355794e-02  2.0545526175168426e-02  2.8082040167452724e-02  6.6851980751119422e-01  3.4488579723204266e-02  3.6710161395147232e-02  9.5223781487211834e-02  9.4937170504525617e-02  2.3758164757576361e-02  3.0352828710192306e-02  1.1464212593332170e-01  5.0245162361132037e-02  7.6711836727100280e-01  3.2258046251628508e-02  4.4908225659063224e-02  4.6336027061163423e-02  3.0440002207224117e-02  7.9270965143043959e-01  1.1099729793219619e-01  3.5241140639520059e-02  4.3425124093398590e-02  3.2606589113722398e-02  2.2796549262561423e-02  4.1125276204044443e-02  2.6763883806878115e-02  2.6951959476525157e-02  4.9011446427878858e-02  4.3026773644875727e-02  4.4925857354634363e-02  3.8420533453027178e-02  3.5179151789508707e-02  3.6673392086151245e-02  3.9340301504222144e-02  3.1573091068881266e-02  2.7250558996001852e-02  3.1379327178860682e-02  3.2491306879954163e-02  3.0970191320119519e-02  7.3608825944839895e-01  4.0897382802208400e-02  2.6891462274121321e-02  2.1039326185535018e-02  1.1839855634038039e-01  2.0826180819223494e-02  2.8936502343676843e-02  3.9504995648458420e-02  5.1053203959903558e-02  3.5635781666541584e-02  5.2339992114577523e-02  4.1452399977293594e-02  6.3197642381029895e-01  3.5306880396487578e-02  4.8874989934423289e-02  4.9706793441828517e-02  5.2833296175780801e-02  3.9063262782589606e-02  7.6427343653149471e-01  4.0221143213372390e-02  1.2061924376128184e-01  4.6713055585711628e-02  4.4403875607677612e-02  4.4443667620530418e-02  3.7001936149116545e-02  3.7708908588090319e-02  3.5903641653110170e-02  2.0523214568808481e-02  3.1394474661895308e-02  5.0477651514542365e-02  5.0850641523503590e-02  3.5911698289555843e-02  4.6774304626757239e-02  4.7260044387152436e-02  7.9413185744827408e-01  3.2159959234209098e-02  2.4651263222635455e-02  3.2671600189434928e-02  3.6908535398618293e-03  4.0129237166710560e-02  6.6850187350932266e-01  4.3195554030940317e-02  4.6161343817221749e-02  9.1336723760029853e-02  4.2342838793811628e-02  4.2665725164266324e-02  3.3203423083056675e-02  1.2866136102680151e-01  1.6607560908505629e-02  2.9787758652830666e-02  -3.7594595244704369e-02  6.2968923374707608e-01  3.0210683599046707e-02  6.5890744780054367e-01  3.0645570093399823e-02  4.2324205106035420e-02  3.6836207582142864e-02  3.3598729673447035e-02  7.8449561471792573e-01  2.7791530194853167e-02  4.0143337686749624e-02  3.7251266139636294e-02  4.7937727756987084e-02  3.2643458606336918e-02  3.6695629094583987e-02  3.7047487787501367e-02  3.4541453054668526e-02  3.1978638839178140e-02  2.9192959029713073e-02  7.8244636964108527e-01  4.2849793584839133e-02  7.5851671716001734e-01  4.3049290903580839e-02  2.5443715634853943e-03  5.0758374034093293e-02  3.3598267040013848e-02  3.0487034572216239e-02  4.0716086861987022e-02  8.2168873675357190e-01  8.0130838820307737e-01  3.9259434679952118e-02  2.0577281373062965e-02  2.9340301494289567e-02  3.7494958705368633e-02  4.3011229916038451e-02  3.1213889148579699e-02  4.0456449385826959e-02