<?xml version="1.0"?>
<VTKFile type="UnstructuredGrid"  version="0.1"  >
<UnstructuredGrid>
<Piece  NumberOfPoints="1127" NumberOfCells="2108">
<Points>
<DataArray  type="Float64"  NumberOfComponents="3"  format="ascii">-1.008468116974346 0.1226468288529467 0  -1.002295456259447 0.01285567143552973 0  -0.9835867008118051 -0.09586963951196097 0  -0.9522806246207616 -0.2021549023104891 0  -0.9088124810590228 -0.3042746260236533 0  -0.8541432155674854 -0.400388230529628 0  -0.7888030507002758 -0.4895573647315663 0  -0.7145833978145413 -0.5702375816930837 0  -0.6347747562208045 -0.6400427063957727 0  -0.5512682730040382 -0.6990332131449964 0  -0.46300051024132 -0.7488925022223198 0  -0.3711365141946645 -0.7893729500656919 0  -0.2759792213546051 -0.8204861368146281 0  -0.1779743313657306 -0.8423828652508952 0  -0.07893237743364073 -0.8546029449340701 0  0.02036801256546009 -0.857316812144241 0  0.1192059299645747 -0.8504425211096825 0  0.2177458684400053 -0.8340755353251176 0  0.3143112835330764 -0.8082710993598151 0  0.4086706642102412 -0.7729267592901523 0  0.4989753742268596 -0.7284507781446155 0  0.5852229095950067 -0.6747365032906072 0  0.6670145938784923 -0.6117089498707293 0  0.7443988327707169 -0.537534331769761 0  0.8144426167849323 -0.453905296512558 0  0.8753052650924711 -0.3624963354521939 0  0.9256811716773266 -0.2636525436177663 0  0.964614578716493 -0.1593413405264416 0  0.990987553908131 -0.05211437130575398 0  1.005029921084492 0.05745608412730145 0  1.006091642019471 0.1677570914785808 0  0.9946777992644308 0.2769329343328771 0  0.9711043092333191 0.3839775174050762 0  0.9349996788306917 0.4881143007032847 0  0.8874147240852801 0.5874961263689329 0  0.8294577091736482 0.6800745514784616 0  0.7610132059391813 0.7664082109131891 0  0.6835267690978956 0.844505126977963 0  0.5980293824728276 0.9134598040571187 0  0.5052594165406918 0.9730034404545539 0  0.4064227748642805 1.022081738305051 0  0.303492868660431 1.059945745906907 0  0.1961813888662473 1.086938889737254 0  0.08712396789497971 1.102252912205137 0  -0.02289287658489269 1.105758210103211 0  -0.1324941889204542 1.097384793336835 0  -0.2413368808211052 1.077179307102 0  -0.3470050380166191 1.045600763243324 0  -0.4480591063468174 1.00303578467956 0  -0.5446814045591377 0.9495058179355013 0  -0.6345423884218669 0.8860696248740211 0  -0.716558318582187 0.8135495284255144 0  -0.7902449443381268 0.7323684727695321 0  -0.8548879236996015 0.6430968773170449 0  -0.9089565765085162 0.547296847259675 0  -0.9519305999764801 0.4463826353823359 0  -0.9830934721805287 0.3410945954857309 0  -1.002268837188102 0.2321176366990488 0  2.299187303789166 2.806931640229036e-06 0  2.290438351215908 0.2003857140005684 0  2.264259530580465 0.3992454922605076 0  2.220840772789038 0.595069696483607 0  2.160531257238528 0.7863666131012085 0  2.083766040002281 0.9716755746970976 0  1.991155108719132 1.149596476430692 0  1.883381221771603 1.318757728102477 0  1.761280744637184 1.47789191302087 0  1.625771447948033 1.625767084151813 0  1.477890068760861 1.761276201570775 0  1.318765388863478 1.883384859168183 0  1.149592964091305 1.991151082253093 0  0.9716786059575054 2.08376798271922 0  0.7863679050257467 2.160526858051889 0  0.5950734691778256 2.220842082019467 0  0.3992494338499182 2.264255973846203 0  0.2003909083426713 2.290443621349135 0  -9.558902578181729e-08 2.299185144480718 0  -0.200388096496344 2.290437122889036 0  -0.3992544411622431 2.264262283524278 0  -0.5950739454716805 2.220849901179634 0  -0.7863673489873503 2.160527327434982 0  -0.9716789294690126 2.083769744223854 0  -1.149596169386622 1.991158648591163 0  -1.318760227309895 1.883381060549549 0  -1.477887588820125 1.761277119842088 0  -1.625769828997479 1.625767977101721 0  -1.761283574607139 1.477889780128019 0  -1.883386094008956 1.318761797485842 0  -1.991151803523701 1.149591105878954 0  -2.083767346200213 0.971673935548809 0  -2.160532143767008 0.7863645044780153 0  -2.220845530990479 0.5950726773699961 0  -2.264258135644345 0.3992508068760591 0  -2.290433181975894 0.2003876604616366 0  -2.299186603422005 1.567337488489723e-07 0  -2.290438693619387 -0.2003871561805226 0  -2.264257574479712 -0.3992497016058333 0  -2.220837252384231 -0.5950717680690776 0  -2.160528696179647 -0.7863697938128104 0  -2.083772137832042 -0.9716772368912441 0  -1.991156790789061 -1.149590911901212 0  -1.883380699892274 -1.318755907596068 0  -1.761280940532014 -1.477891029168657 0  -1.625768253446545 -1.62576740686037 0  -1.477888803998473 -1.761282905209397 0  -1.318757736751336 -1.883381360774277 0  -1.149594095546268 -1.991158638622862 0  -0.9716835700600936 -2.083773208601488 0  -0.7863673430673708 -2.160527074757006 0  -0.5950747263893317 -2.220848910700879 0  -0.3992485202017009 -2.264261584064037 0  -0.2003880941515027 -2.290442536008398 0  4.507552697808381e-07 -2.299185279306114 0  0.2003872398151827 -2.290443470139202 0  0.399248456473857 -2.264256249211411 0  0.595074424659627 -2.220848444265352 0  0.7863681698122654 -2.16052653806819 0  0.9716804221237109 -2.083775530884795 0  1.149593080426659 -1.991151966577323 0  1.318760357834136 -1.883387757130268 0  1.477890643134423 -1.761281635744806 0  1.625768571447291 -1.625767062525903 0  1.761281649287374 -1.477890794637063 0  1.883379201017303 -1.318756683568532 0  1.991149503364778 -1.149588678056404 0  2.083766792818617 -0.971674119056483 0  2.160522606246024 -0.7863654262716122 0  2.220837333744325 -0.5950720088963227 0  2.264250528106419 -0.3992483929536155 0  2.290431173745991 -0.2003871127547218 0  0.001117395287178813 0.1421150805195703 0  -0.0691639057618296 -1.585545449950019 0  0.6467610703418458 -1.453147736522356 0  -0.8585575391784902 -1.349538295052913 0  1.208640069827672 -1.061116918473556 0  -1.363656781053757 -0.872991298407355 0  1.556099442837616 -0.4977046126100402 0  -1.630633011820836 -0.2237646691718422 0  1.648812032938455 0.2061300554291907 0  -1.613052267698915 0.4117727956489126 0  1.466153414376386 0.8147687851358545 0  -1.315036460048038 1.053034742107078 0  1.039088745878404 1.339997277227315 0  -0.790215058521463 1.503942884424887 0  0.2243753374284171 1.688439137421428 0  -0.3092397884012161 1.741368745530998 0  -0.5053364353590852 0.05928515354940733 0  0.5110676216830694 0.1316852901515296 0  -0.3062353414654288 0.5240943196817877 0  0.2477878710069208 -0.285924604395787 0  0.2528261634892354 0.5583684759516064 0  -0.546637833573253 -1.730583873022255 0  0.5961648624064918 1.427985063749281 0  -0.2403353158901107 -0.3193870961008093 0  0.4049125399711711 -1.82348753748877 0  1.144275461619368 -1.488261453669043 0  -0.4096498451465966 -1.297717103426015 0  -1.27877666000675 -1.39294811821802 0  -1.742591591253793 -0.6444623335561996 0  0.2515889877066815 -1.273388565400749 0  1.688108497940651 -0.879483464120563 0  1.886491242603725 -0.2534028799109999 0  -1.684408954224634 0.8670829559842811 0  -1.906151107958411 0.07639814263712706 0  1.826881023538725 0.5675520037121451 0  0.7810535320418029 -1.059047789351805 0  0.8779091910832907 1.703067159203923 0  -0.9422857330077227 -0.941998295469968 0  1.423299187063026 1.294050569738223 0  -1.176758219355342 1.523103518469077 0  -1.289124684014261 -0.4716033771785859 0  1.172156287643844 -0.6591765375915044 0  1.395725802742556 -0.1258773119523262 0  -0.2292347712903513 -1.922819388502828 0  -1.39481794207819 0.08115616465343758 0  0.7628693834683888 -1.795169354356774 0  -1.356788119894849 0.6788520390706929 0  -0.9133512064576724 -1.713905201308827 0  1.342697681899659 0.4182478134885841 0  -0.06746710786216152 1.465514442796891 0  -0.4391959994909038 1.396752921395797 0  -0.9276003319893252 1.136940252697138 0  1.104650247922923 0.9527804418851424 0  1.450813411299097 -1.320028957054821 0  1.968026457509041 0.07897037473130637 0  -1.695086142932143 -0.980006618917194 0  -0.079592477976886 -1.208851043798781 0  1.879395670621692 -0.6063581614398377 0  -1.895541554644803 0.5904402370450713 0  -0.04048249332693012 0.7597614062310944 0  -0.6524916058242655 1.834620220790261 0  -1.964962077796254 -0.2628731665940728 0  -0.6209156093312832 0.375163213496832 0  0.5468892461996017 1.860990341287657 0  0.5740810125589625 -0.2091526855795587 0  -0.01923801612892327 1.948097088249292 0  -0.6260774044199868 -1.05271904014971 0  1.682059666283557 1.063372500537209 0  -1.452213202480693 1.351890841607202 0  0.103239206777242 -1.971460795641905 0  0.5812181770847437 0.4573635624465419 0  -1.093097553247613 0.8353719247326808 0  0.7761925074258199 1.168303904502562 0  -0.583483697383652 -0.2506580483995013 0  1.258648911874757 1.553254033763746 0  -0.9706957413842514 1.749134042276146 0  0.01688149180024612 -0.5138902337168406 0  0.2866839118629068 1.381926280053115 0  -1.291205706249611 0.3713202278088375 0  -1.044509478452135 -0.6616143155129415 0  -1.552677840392791 -1.25195349267776 0  1.208556248989002 -0.3673804811170838 0  1.174869714940119 0.6619591284086151 0  0.4760291345564792 -1.080009238091423 0  0.2751834335640917 1.979749761208811 0  -1.340632705320744 -0.1966732938108879 0  0.9893781056707356 -0.871654184192481 0  0.2301284581779416 -1.575910596087657 0  -1.084411052679777 -1.186381815018505 0  -0.01972746517972224 0.4333106125035171 0  0.9034319883827878 -1.322992832776791 0  1.374057514078979 0.145579863000923 0  -0.6760049310635268 1.252022452841596 0  1.442540337842926 -0.7443038135206531 0  -1.65469633420162 1.152648211479126 0  -0.2866072494099542 2.016186927998083 0  -0.006975355027239721 -0.1454396293600321 0  -0.2382539712139741 0.000889609201439481 0  -0.2394965169296817 0.2676259241752131 0  1.677000271516762 -0.06912108843583803 0  -0.7584129585544123 0.08669029465093095 0  0.7541957099750548 0.2008511772338472 0  0.2206309337487481 0.8153763946795909 0  1.725363125195406 0.8056350500998374 0  -1.997819655938325 0.3371328609246744 0  -0.3074801943081548 0.7841438770206632 0  -0.5443305965110027 0.6254550256637617 0  1.994659470642824 0.352864368741668 0  0.41751773334
[...]
<PointData  Scalars="f_2819-1"> 
<DataArray  type="Float64"  Name="f_2819-1"  format="ascii">3.3168802354267390e-01  3.3444889826041813e-01  3.4267933204181544e-01  3.3171867490228912e-01  3.2646022924261092e-01  3.4075903980139260e-01  3.4183868157768754e-01  3.5643593943970170e-01  4.2733177713361026e-01  4.3816019403358381e-01  4.2388842975642010e-01  4.3935273175484513e-01  4.3044311749898112e-01  4.4223200576214955e-01  4.2157405325798836e-01  4.4509776651739758e-01  4.2925807135675564e-01  4.2963419836578193e-01  4.3475083721877733e-01  4.4109932534141993e-01  4.4517037711725316e-01  4.3076325669770704e-01  4.2270982834703608e-01  3.3424594221906256e-01  3.3233074156730252e-01  3.3801983650402140e-01  3.1502936989339408e-01  3.2750444490661751e-01  3.3041827070492313e-01  3.3767861181719111e-01  3.4712836602322239e-01  3.3763729197595271e-01  3.5690917543274048e-01  3.3669173089587195e-01  3.5664799515883000e-01  3.5123550460110170e-01  3.5782695579109886e-01  3.6772941240401541e-01  3.7205426687302218e-01  3.6694367842097486e-01  3.6637315377126922e-01  3.6803670263763549e-01  3.7337129761048504e-01  3.7427937725816007e-01  3.7780570226335913e-01  3.6950470561909182e-01  3.7240548460418516e-01  3.7655559752887202e-01  3.7555347131364680e-01  3.6612839394926550e-01  3.6354765274810580e-01  3.6029504571840748e-01  3.6467881362186622e-01  3.5738800264443210e-01  3.4966279399964578e-01  3.5489168680840194e-01  3.2661582488433605e-01  3.5378511211341035e-01  -5.2504384991743223e-02  -5.1729103644385113e-02  -3.9889100222415132e-02  -8.5972687850703930e-02  -3.5930525898868040e-02  -9.5121760029827404e-02  -2.9275884247207142e-02  -7.4541431549341897e-02  -1.9352421577795764e-02  -6.2899421619170837e-02  -6.2600884222530073e-02  -8.7880377616775390e-03  -6.7704011676446157e-02  -6.4132238483205761e-02  -6.0497816303151146e-02  -5.8664049041861198e-02  -5.3933133339822241e-02  6.2263961317397315e-03  -5.7357151294968337e-02  -4.9732511014845396e-02  2.6028477867723297e-03  5.6714772052749319e-03  -5.8593975181955887e-02  -5.4075988947376329e-02  -7.9391862067836711e-04  -5.9086225530567582e-02  -6.6991956307263165e-02  -6.8898194937541707e-02  -1.7364061466697615e-02  -2.3278642206298255e-02  -7.8495786366815756e-02  -9.0441702700321272e-02  -3.8381086006212081e-02  -4.5559487998809343e-02  -4.1418038001648463e-02  -9.0997519407898367e-02  -5.5200354988021658e-02  -4.7411260565850474e-02  -4.7522058251978715e-02  -1.0807407337023500e-01  -5.1826530880169315e-02  -4.9868713014531024e-02  -3.9468565314464125e-02  -8.8037567428199709e-02  -2.4214383673289222e-02  -8.2298047084020803e-02  -2.5146061679925728e-02  -7.2040163800973570e-02  -1.3752934803586206e-02  -1.4168673891732922e-02  -6.3818594014392799e-02  -4.9399262136186868e-03  -8.1977578401239409e-03  -5.1448468145656899e-03  -5.9808804107895887e-02  6.2944845171379101e-03  -5.5259239416695576e-02  -6.7770657866133947e-03  -6.5324536978054445e-02  -1.4137618473690347e-03  -6.6421751165549117e-02  -1.5586070231000077e-02  -2.2972465847126027e-02  -8.2496094959967847e-02  -2.0306560212446464e-02  -9.3340075616835452e-02  -1.0270369084448405e-01  -9.6235413751209739e-02  -1.0671939794821132e-01  -1.0688577569479261e-01  -1.0647074794164385e-01  -1.0532016714661301e-01  8.0324929977317283e-01  6.2997666271408695e-02  5.7660794075114798e-02  5.1456669429395918e-02  3.8528683854064653e-02  3.0121921969358954e-02  2.2765890043828396e-02  2.2010239236867186e-02  2.6195990200055808e-02  3.0631840475115007e-02  3.9854978714339830e-02  4.7618066475654558e-02  5.6402289451460898e-02  6.2997636015470371e-02  6.9679744869968779e-02  6.9202831657447644e-02  7.9107589836677517e-01  7.8833954721176469e-01  7.7819853811094630e-01  8.4179052444981806e-01  7.7764011775022501e-01  5.8277870565294404e-02  6.5079722318075420e-02  8.4525160327397098e-01  5.9834831465229998e-02  4.6448540186417482e-02  5.8026760160217940e-02  4.1109171212339368e-02  2.2586064281240856e-02  6.1078619549061457e-02  2.5642445327271331e-02  2.0371582979960650e-02  3.7781837386486342e-02  2.2769698879417932e-02  2.9881810265586672e-02  4.9409609177334092e-02  6.0780604970671406e-02  4.0320343318038590e-02  4.7589605673146969e-02  5.5142846448197946e-02  1.7514019498733366e-02  2.0007960668954761e-02  1.8380167244696578e-02  5.9466953031073737e-02  1.8033419277289030e-02  5.4359961783054724e-02  3.7708571316385629e-02  5.1057475424011116e-02  2.6581266762038355e-02  6.6753222388282518e-02  6.6211396119139343e-02  5.4251553630986535e-02  4.7810155111799556e-02  3.5949316598851512e-02  2.1387150352216611e-02  2.5587559332583960e-02  6.3131816362893764e-02  1.9689468711668188e-02  2.9104167467156612e-02  7.7138464629637382e-01  6.4167448260107840e-02  1.8649628205005559e-02  7.6884267980274112e-01  6.4993234824384016e-02  7.9983979455010901e-01  6.7852448944944202e-02  5.0320706456855310e-02  3.8646216023456123e-02  4.7519763818559539e-02  5.9152063396408112e-02  7.7107840309998077e-01  4.9322591119173094e-02  6.5958497564959015e-02  7.9349776416048745e-01  5.1831646632287079e-02  5.8326417048493603e-02  8.7065039240627973e-01  6.9872825146257395e-02  3.2607333383090187e-02  2.2797576861369143e-02  3.0748409094218734e-02  2.2106305201013064e-02  4.2558406965625864e-02  6.1232406488330365e-02  6.6022614746153910e-02  1.6901248183259918e-02  3.5160978145840481e-02  6.2531475147888996e-02  4.3528767931288147e-02  7.8529193627782623e-01  5.1203956926154336e-02  2.1129428033452073e-02  6.3419092383395353e-02  2.6774945644752163e-02  4.0183547187524336e-02  6.4382990500673823e-02  8.2911659644813185e-01  8.1075009719936408e-01  7.9182706344809528e-01  2.3075781898971720e-02  7.5590068213697714e-01  7.5473167317072565e-01  7.5967405772800756e-01  3.5251701467907265e-02  2.2287096901208548e-02  7.5505883155196785e-01  7.5089850734987873e-01  2.2206138065787116e-02  8.5796004889727739e-01  3.2539472433245877e-02  7.9086267269252919e-01  8.1110672532101913e-01  7.4893114713298581e-01  2.3983030085889034e-02  4.8125824335179368e-02  3.0770879948128507e-02  6.1504339160620321e-02  7.2835130707387327e-02  5.2188496067562429e-02  5.5683548217371676e-02  5.3930480138227134e-02  4.3398091487949819e-02  8.6201011530591132e-01  6.7241474312111749e-02  5.2918464359041122e-02  7.0256028296787967e-02  2.5458308885342167e-02  5.3711328445983517e-02  1.6138328097820426e-02  4.4743836646916064e-02  2.4369716941496474e-02  3.7177254820565032e-02  8.4071397006737436e-01  4.3736098105772683e-02  5.9422684337680762e-02  5.0854692160323942e-02  5.2841200444522361e-02  1.8435864407297956e-02  3.4471843560751975e-02  5.8298327488626213e-02  7.7684977832504443e-01  2.1720939081743794e-02  6.7460133833193103e-02  8.5420762654456403e-02  6.1205998282267277e-02  2.6911720757665934e-02  2.1631295546011203e-02  5.9842173856517827e-02  5.5833053858394821e-02  6.1814974760604123e-02  6.2304636309797212e-02  5.3528155298287465e-02  7.4906683054832598e-02  2.0415117540687974e-02  5.8991084125573988e-02  5.5011191527793539e-02  5.5427275392458689e-02  3.6224542611364201e-02  2.7550258905130180e-02  2.7061934398614162e-02  1.4777194134463250e-02  6.5733041645117521e-02  6.0760528820949788e-02  3.7668378091438449e-02  4.9290756856386460e-02  6.9660995873128337e-02  4.1471161290191641e-02  4.5042582726230650e-02  3.8362010780210717e-02  1.6156125977211125e-02  7.9261923006589824e-02  8.2099168496241326e-02  8.1759226890233849e-01  8.6813948703654309e-01  3.6200386616141202e-02  1.5308158886158284e-02  2.3987259363558004e-02  3.0356034332315693e-02  4.4360467349304412e-02  5.3500971089703038e-02  6.4775232619383546e-02  4.7335251411036013e-02  1.3642669177594099e-02  6.2484680882547397e-02  5.9341514658408472e-02  3.4806575532571715e-02  3.8679683223295541e-02  3.1466212994278042e-02  5.7940790030442967e-02  4.2125909330904682e-02  3.3764569005942914e-02  3.4767840746126467e-02  6.3674923276674247e-02  5.8478428966979440e-02  2.0965861368628613e-02  3.1679994534461436e-02  5.3675389606148712e-02  3.1389363218560555e-02  4.6476098113037066e-02  6.6254688646335658e-02  2.4567285751980097e-02  2.1862536311589135e-02  3.9570137082464062e-02  5.7548542076020323e-02  3.6572599634766452e-02  2.2462837902272086e-02  1.8078586397627047e-02  7.8247060182579486e-01  2.3305766739489812e-02  2.7771167071290251e-02  5.1561533258407136e-02  9.2630681704237772e-02  9.1223144546676321e-02  2.7042531731424208e-02  2.0172168024216289e-02  5.7296468168492688e-02  3.7909585057501867e-02  2.6311009796999765e-02  5.9235686619471324e-02  4.3046440675635206e-02  7.7636826299405493e-02  2.4008349880019906e-02  4.5694268107982314e-02  6.8283752267318101e-02  8.6610077449892547e-02  5.2733331209679296e-02  7.7601918221101074e-01  8.8666603756346038e-02  5.3272186325732170e-02  7.3538424821417436e-01  8.0428182936474524e-01  5.2116788495272980e-02  7.8210173807719896e-01  5.2864428803220759e-02  9.4397389665332718e-02  4.4949591160155171e-02  5.9428004967260278e-02  5.9529826477471404e-02  7.0468498167375354e-02  2.0605650794548673e-02  7.0884429500515467e-01  2.0305020498672464e-02  3.2533986448711520e-02  2.2496906232391076e-02  2.6459507010963650e-02  3.3929657499310081e-02  6.2117748337451768e-02  4.3369516564676455e-02  7.3608700205254030e-01  8.4951771715122271e-01  1.4848403053896753e-02  4.6782043683068479e-02  7.2697199280093472e-01  7.2946101369307204e-01  6.5316513803489351e-02  7.2219311798891672e-01  7.9736153295799472e-01  7.0255922148665842e-02  6.7968698069084524e-02  6.6417937112755496e-02  1.8171592874245506e-02  7.2600508205672143e-01  8.7505058863461560e-01  4.5366062844047136e-02  6.1229024346203018e-02  7.7273270288159124e-01  7.7499924745438331e-01  1.2232108545824734e-01  6.4787527423165653e-02  4.4537504090791033e-02  6.9039224760610640e-02  6.9662420318840540e-02  5.9317404429996001e-02  8.4759369108470345e-02  2.4025162382426232e-02  2.8499689810109013e-02  5.5136024388916086e-02  3.9807673245765174e-02  4.1367519531665287e-02  5.4669360524935331e-02  6.9385054748529140e-01  4.4706203353042311e-02  2.7739004389094629e-02  4.9215874416757607e-02  5.2377253264338973e-02  7.8260004994083687e-01  5.2862592982712731e-02  2.8352406158103902e-02  8.3124705162471069e-01  5.9016661836234371e-02  2.9466387990007163e-02  3.9201765670403323e-02  1.3883054991319243e-02  2.1117304381057300e-02  2.4220995968524783e-02  8.7712629300708966e-01  1.7588642951299398e-02  1.0039908410596652e-02  7.7722408264854359e-01  7.5687018163328657e-01  3.7552477876974535e-02  8.0495297784145600e-03  4.5865636219087638e-02  1.9192586584759981e-02  2.4349115240444971e-02  4.0172847679125982e-02  1.6023760559439382e-02  3.1459837502515145e-02  6.1260482334104964e-02  1.1166584691024889e-01  6.0169305149210477e-02  5.8987476937648525e-02  5.6440804527983654e-02  3.1318539790078322e-02  4.8009015331259210e-02  6.9992485572906338e-01  7.9665048711043995e-01  5.8836499242715799e-02  4.6576871984311589e-02  1.2669657321695109e-02  2.1647887137026669e-02  7.0011340450214576e-01  8.5556313497487102e-01  2.2131158281739841e-02  2.2405151410509312e-02  7.1559430055831064e-01  8.3928207939256527e-01  6.1613239693030321e-02  7.7615192401892119e-01  3.8003857464005843e-02  6.1345474293668330e-02  1.2998150514680681e-01  4.0726084591595872e-02  3.1204111413695706e-02  5.1414014856976005e-02  4.9079732878158068e-02  5.7028141194437963e-02  8.2640959213509446e-01  2.3910839268242268e-02  2.2478454727625611e-02  5.2323024842371293e-02  3.5633267836574570e-02  5.9174501723146943e-02  4.3017937204461711e-02  4.0396774315784270e-02  5.2650424073303170e-02  2.9146754986358988e-02  1.4090913320399537e-01  7.9261181404058645e-01  7.8475745317764556e-01  7.9290931914783025e-01  4.6406076785338639e-02  7.1354507098370629e-02  3.2811017583271915e-02  6.1178807427379987e-02  5.6847076456862537e-02  8.2122304267213608e-01  8.2655336137754543e-01  8.1394159817336031e-01  8.1452358626495103e-01  8.0157593622463896e-01  7.9702888867871735e-01  9.1110986014912951e-02  6.8686811199138720e-02  6.5936810807000937e-02  8.6400866753293160e-01  6.3720057231167165e-02  5.7343973937627774e-02  2.9149262592640422e-02  8.8998143794449480e-02  2.3537912492685123e-02  4.5678587071460261e-02  3.9696198158193065e-02  2.2126127164333608e-02  3.6720251852182861e-02  1.4291182735381019e-01  1.0369357620132431e-01  7.9596240154964970e-02  2.9260642753751107e-02  7.7409757207307961e-01  6.2570388707458652e-02  5.3133164652817297e-02  3.2228433896178514e-02  6.1975983357909763e-02  7.8437851141761117e-01  1.0932947688220623e-02  1.3606087927147422e-02  3.7499973184129266e-02  7.7774663084167450e-01  6.1583371549374120e-02  6.3049672001014037e-02  7.8495247629764997e-01  6.9031073628066175e-01  1.0502763719301669e-01  4.2637373632466349e-02  4.6679689924143224e-02  3.3970468192480750e-02  2.9270493324143408e-02  5.5142674876400101e-02  4.4996940160716696e-02  6.2417776477675567e-02  6.7726705941280982e-02  6.9965056089988667e-02  2.0171784941132264e-02  4.4611037420579480e-02  1.3205699022880971e-01  6.7290316236568093e-01  5.0455419581591672e-02  1.6187917623087432e-02  7.9744753654668199e-01  4.1180376467767427e-02  6.2338808135836532e-02  5.9589269357260777e-02  2.8431211213482740e-02  4.5108660456897938e-02  4.9430819195514182e-02  5.4620309804653606e-02  4.8678662638399345e-02  3.9954256160196586e-02  6.9017615731429963e-02  8.1915896913296288e-02  4.9862213852456240e-02  1.7588654698934222e-02  4.8685891759093686e-02  7.0051701583337608e-02  3.4402652240164006e-02  2.1992170483392345e-02  5.2653057469224572e-02  6.5672908475720410e-02  2.2659643109083832e-02  1.7767460568712676e-02  1.6735350472621882e-02  4.0549785546217139e-02  6.8740041467186958e-02  4.6275959918236048e-02  3.7499039548257888e-02  2.7858632948318612e-02  7.6868299207855584e-01  5.5385110582343619e-02  1.9406479532803410e-02  2.9001040841593700e-02  4.7746134212769485e-02  4.2959935759140963e-02  4.1963560654677996e-02  1.2016348207559546e-02  6.6126997333769799e-01  2.1491142656560103e-02  4.4764015093192278e-02  8.2462380690259840e-01  5.6688796653988620e-02  8.0251925710918748e-01  8.0411036897196497e-01  5.6269665770344875e-02  4.2167875431033945e-02  7.8073044516670376e-01  5.1073732124374986e-02  7.6815448927553720e-01  6.6108707857983173e-02  2.0670283551069119e-02  2.4386255800109013e-02  1.8832085185043316e-02  2.2894582579700385e-02  5.8291120624654968e-02  2.4348070519600657e-02  2.6723731963430818e-02  2.6645747001813224e-02  6.7842804353739267e-02  6.6398625439587050e-02  2.6694124135614773e-02  2.4089930314690408e-02  6.0726285933794831e-02  4.7943887081354768e-02  6.4771834649949223e-01  6.7844664671069921e-02  2.2092223779571287e-02  6.3613452223282504e-02  4.3369488693520780e-02  3.5614632057178762e-02  8.5693496903560512e-02  5.0023026202987486e-02  6.2875388856104286e-01  1.8247252405726791e-02  5.5740731824602756e-02  6.2606829925382593e-02  7.7363879077308140e-01  3.5202206656581407e-02  7.8006137151621996e-02  6.3750396999220013e-02  2.4193756435500400e-02  7.3853755537058863e-01  7.8342869234308288e-01  1.1583609378107128e-03  4.1558760852288747e-02  7.9606845140548235e-02  5.7727465131513264e-02  9.2232972457013757e-02  5.4536843418077706e-02  6.4021034975248725e-01  1.2424497333108795e-02  5.9651951075938903e-02  2.5905954897887318e-02  6.1758937646099710e-01  1.1498281725007586e-01  5.7618279179312518e-02  1.8296946952043452e-02  3.6691323579203926e-02  2.1070880997865499e-02  7.6747380485952910e-01  7.6765501985961826e-01  3.3560908709965580e-02  2.2198550227060382e-02  6.3268354789741066e-01  7.8137498953415696e-01  7.6770287485886857e-01  7.3070426971598135e-01  4.7971277374839902e-02  1.2252545748541789e-01  2.7742827343678618e-02  5.1053688119768098e-02  6.2180550235239762e-01  7.7931608091630944e-01  2.4704820539637046e-02  2.0041260920515835e-02  3.2621816917761566e-02  3.7397397398698157e-02  5.7363718131905279e-02  1.4842238019389276e-02  2.2915294385338399e-02  4.0218930062811672e-02  5.1094372535968102e-02  5.8529436761403306e-02  7.3626705029319964e-02  1.3352431291819486e-01  3.5268205433423225e-02  8.0938732980746608e-02  2.6997098635884998e-02  2.1736332169340476e-02  5.9190837142191421e-02  7.6218480682339862e-01  2.2681303721898610e-02  2.2510168074556067e-02  2.4352893740869887e-02  1.0325732649338484e-01  1.9103054153918962e-02  2.3603634784029791e-02  5.6261409691640465e-02  8.5396942590608105e-01  7.6032640266574592e-01  4.3516846780994954e-02  8.4126607171655066e-01  7.9404166054529057e-01  3.2594765904989283e-02  4.9863174432558673e-02  1.6870856081147200e-02  3.0231418702680632e-02  2.0177611712370841e-02  5.6518310533877028e-02  2.8218005942653147e-02  2.9636786071515292e-02  3.1221590183386633e-02  5.4604200461221733e-02  7.7230452357473756e-01  2.3783658564531667e-02  -3.0712649106796773e-03  1.0657355450752973e-02  4.7711324310163103e-02  1.5850174792841734e-01  2.6286257593163422e-02  5.7818240960469704e-02  -2.1411127303515132e-02  2.9911762447184184e-02  3.5885329784955865e-02  2.6561790323844005e-02  6.0211568415836379e-02  6.0949411638647415e-02  1.5975869705855499e-02  5.7157197315793745e-02  6.2499349541053621e-02  1.6330924010633854e-01  3.7096165734472962e-02  4.2128982243687899e-02  5.1366884811499779e-02  5.6158742850290648e-02  8.3598412036248082e-01  5.3623175615629258e-02  1.6286986534824904e-01  4.4084966462795812e-02  1.9570416645650762e-02  1.4686429653893351e-01  5.5794262812104041e-02  2.0849244637432471e-02  7.3060784325874073e-01  4.5670743517965365e-02  2.2272525107930177e-02  6.0872896967433254e-01  6.1316261388091507e-02  6.3506082023482693e-02  1.4429810927689374e-01  1.4615863218613726e-01  7.5578822068598306e-01  2.1256077480389452e-02  7.7996604581880158e-01  8.1282208675133782e-01  5.0628762921100683e-02  6.4992671385265932e-02  1.6967199694234669e-02  6.6164013709214334e-02  6.7164534111349691e-02  1.9915323573994136e-02  7.8841767638152227e-01  1.5271940431444886e-01  7.2717390227285306e-01  8.6446161424731061e-01  7.7696882715282656e-01  5.0668430699589921e-02  1.0445467787784962e-01  2.9563483456115692e-02  6.9551415186588736e-02  7.0414263354173098e-02  3.9281846765595499e-02  3.4390138998628646e-02  6.6237440753201537e-02  6.8795636248528774e-02  5.7908762468243946e-02  7.8522133677359252e-01  5.0806698069522996e-02  5.3695970853215341e-02  5.0357727487031954e-02  2.6700458342461420e-02  4.8774982920242752e-02  3.5101183761522513e-02  7.4912997317144542e-02  3.2027445126719511e-02  4.9169995743304266e-02  6.1214749559919276e-02  5.4705709812619095e-02  4.6510741990802684e-02  5.3087235998928298e-02  1.5889531413357294e-01  4.6087713308654479e-02  5.2236980081875724e-02  1.3699690887435070e-02  3.8124758003598679e-02  6.0776319085858288e-02  1.1143085496375877e-02  1.0424895471451905e-02  2.0039301949355961e-02  1.8424706961258867e-02  6.1108777329155088e-02  6.2088985580927555e-02  5.6841940168627286e-02  6.2761365458184026e-01  5.6746887416070473e-02  5.0753624627610967e-02  1.6929338771839029e-02  1.7134813938412399e-02  6.2885949656883589e-01  8.5559098723081795e-01  8.4504905140628050e-01  2.4660871985753206e-02  2.2404949923897324e-02  1.6840769571099388e-02  6.2749087645090254e-02  5.0887480582798364e-02  1.8945458768460148e-02  1.7478730956585718e-02  5.7503370116882932e-02  1.3940258534868311e-01  5.4088962360178530e-02  4.8380654975987217e-02  1.5718852583635867e-01  1.3288220306208129e-01  4.6639344546533776e-02  2.1522730114436631e-02  -7.7478086301774000e-03  6.1133747773184766e-01  1.5297156906013851e-01  1.2592443005778181e-01  6.1540503142961486e-02  1.0639653816736915e-01  3.5755127004452658e-02  5.9542247666759779e-02  5.1730676250743735e-02  5.7717505225870258e-01  4.2901419773910217e-02  2.9610187522115163e-02  3.4218710435029331e-02  2.5718119040583628e-02  3.2430488919135692e-02  6.1952260198583728e-02  6.1902702368323750e-02  1.4864807478608862e-02  2.2142159507737895e-02  6.0356608397511757e-01  6.1460875943500720e-02  1.1962123951596378e-02  6.1785599724