<?xml version="1.0"?>
<VTKFile type="UnstructuredGrid"  version="0.1"  >
<UnstructuredGrid>
<Piece  NumberOfPoints="1198" NumberOfCells="2284">
<Points>
<DataArray  type="Float64"  NumberOfComponents="3"  format="ascii">-1.012781876612488 0.1836554362543589 0  -1.006560676982052 0.07182915788268832 0  -0.9874796949442374 -0.0384005795587184 0  -0.9555589907285366 -0.1464778485825843 0  -0.9115466148914497 -0.2501505433302626 0  -0.8561719944168698 -0.3477401897998907 0  -0.7902880443376982 -0.438593154163529 0  -0.7153374018284946 -0.5204820373504897 0  -0.6338692224300213 -0.5919665747084973 0  -0.5485903131830556 -0.6521852981391073 0  -0.4606696482569843 -0.7017548205604676 0  -0.3686764660229467 -0.7424012909462591 0  -0.2743215295689759 -0.7734575209983664 0  -0.1789895191916926 -0.7949429946739085 0  -0.08414718353008502 -0.8070127310306007 0  0.01113720041220943 -0.8101468889499023 0  0.1058484561714489 -0.8044625773763247 0  0.2008289099463686 -0.7897747991050142 0  0.2956974684142548 -0.7658819807932118 0  0.3896952451991574 -0.7322169758879127 0  0.4803496666491677 -0.6892652365760545 0  0.5673752875051377 -0.6369749835450345 0  0.6507365334394019 -0.5748264169996457 0  0.730124528356474 -0.5011202049922528 0  0.8026235405698948 -0.417624224422882 0  0.8661711216461301 -0.3255232126735638 0  0.9193857641686956 -0.2257673086007818 0  0.9607625137532863 -0.1206737797756792 0  0.9895766277323742 -0.01246110731354377 0  1.005685675819393 0.09786646556110484 0  1.009102805008074 0.2095411828218829 0  0.9996278202040487 0.3211053383475342 0  0.9775954048051649 0.4300313657737516 0  0.9431695315454437 0.5358763679502511 0  0.8972328106745828 0.6366790888972217 0  0.8399439192979108 0.7323550836080134 0  0.7726786218126303 0.8203987499174258 0  0.6957074778035508 0.9006469437505118 0  0.6102666308386568 0.9718013914675641 0  0.5173312111503847 1.033308780930888 0  0.4186651810504182 1.084119606725802 0  0.3151301784350183 1.123921274485016 0  0.2075986633138271 1.15230280623994 0  0.09703187587377005 1.168960619996881 0  -0.01516381343753015 1.173573888016323 0  -0.1260952823673399 1.166084151674101 0  -0.2351918991472733 1.146725722213936 0  -0.3415640428181533 1.115633451894765 0  -0.4446751672950567 1.073101522788277 0  -0.5426126494048409 1.019315390463017 0  -0.6332182871709516 0.9556740963142083 0  -0.7165817192875538 0.8822925269618231 0  -0.7913100911912951 0.8001920359396437 0  -0.8565464907340281 0.7101835894338793 0  -0.9110883382756527 0.6139020925084443 0  -0.9546866798615409 0.5115621579038393 0  -0.9866062422333247 0.4046471463660088 0  -1.006054379031927 0.2955649012003548 0  2.440122846409851 -4.113325122592863e-06 0  2.43179762650301 0.2015086210004558 0  2.406844123689053 0.4016362668672104 0  2.365411702553192 0.5992941735301602 0  2.308028170766105 0.7920462948715531 0  2.234602297273709 0.9801814867661783 0  2.146026222454695 1.161370315698107 0  2.042790758279658 1.334625543083632 0  1.925480861938608 1.498959262464012 0  1.795284828434064 1.652674303386258 0  1.652843624827107 1.795121497338759 0  1.498551685116707 1.925794172153613 0  1.334872806789487 2.042659385611244 0  1.161179750720908 2.146163282223599 0  0.980234033319114 2.234623959277552 0  0.7922878607892379 2.307959297866982 0  0.5992548979913637 2.365428398298895 0  0.4014089689351972 2.406913635859924 0  0.2015078491320134 2.431828023804765 0  0.0002310068690657103 2.440155655258767 0  -0.2017849265516095 2.431796041932828 0  -0.4013613740305551 2.406919844902976 0  -0.5990172404729095 2.365461704298715 0  -0.7925850677675949 2.30784638190097 0  -0.9799421562688622 2.234740031635851 0  -1.161628353001019 2.145918083089335 0  -1.334401860809486 2.042967671137474 0  -1.498758914956744 1.925611442278764 0  -1.652660665248473 1.795263826247714 0  -1.795465047502071 1.652459435311718 0  -1.925451102804785 1.498989870382795 0  -2.042943302050767 1.334440735470549 0  -2.146056153063119 1.161386821095976 0  -2.234535129080141 0.9804102574140271 0  -2.307920230764988 0.7923039223948227 0  -2.365551106046437 0.5987465877957391 0  -2.406822034289541 0.4019133275993845 0  -2.431788585676409 0.201507490178565 0  -2.44012283702746 -1.088199544747968e-06 0  -2.431788809050586 -0.2015073621649515 0  -2.406830727332463 -0.4018695534712621 0  -2.36549782312975 -0.598996349430435 0  -2.30794413248559 -0.7923216063947407 0  -2.234636742367357 -0.9801977905621579 0  -2.146041179109128 -1.161414350675964 0  -2.042943073160611 -1.334436368270977 0  -1.925449786478955 -1.498991085945483 0  -1.795463863889655 -1.652463960788352 0  -1.652493245963676 -1.795435248766122 0  -1.498802992694587 -1.925611468826519 0  -1.334639657605911 -2.042824642144553 0  -1.161390803059076 -2.146059242644186 0  -0.9802022021239406 -2.234637236775501 0  -0.7923199516211308 -2.307949156962215 0  -0.599023809634006 -2.365495321600348 0  -0.4016384555418001 -2.406883683603174 0  -0.201506225400371 -2.431829160025162 0  -4.141784480753192e-06 -2.440164080004306 0  0.2015371207421059 -2.431826279573226 0  0.4014012193725414 -2.406912932697144 0  0.5992922169458134 -2.365415975633644 0  0.7920526902056372 -2.308028293599163 0  0.9801878395475033 -2.234604181046223 0  1.161598020963023 -2.145935148231779 0  1.334613052621561 -2.042840668010169 0  1.498805516361274 -1.925609974254036 0  1.652495947351711 -1.795439159341953 0  1.795466740393445 -1.652464544218919 0  1.925450099782119 -1.498989539896636 0  2.042964017155398 -1.334403896462531 0  2.145914465650542 -1.161628506473219 0  2.234718738497847 -0.9799851121266178 0  2.307943573776707 -0.7923171788632613 0  2.36542211954507 -0.5992459948744966 0  2.406912952280563 -0.4013609188002074 0  2.431790915953774 -0.2017878191924744 0  -0.001378769162608724 0.1949405326524569 0  -0.0774004357387373 -1.628094377723291 0  0.717326551006367 -1.476976594129574 0  -0.8390459228398042 -1.416657133264043 0  1.322437838470269 -1.012028497222512 0  -1.437028360320358 -0.8639582297233962 0  1.659873183364506 -0.3692973772930104 0  -1.716653723291875 -0.08309012849641029 0  1.707968157870162 0.3207270135347368 0  -1.650175414923325 0.5925099418219646 0  1.451280777189735 1.020268878791302 0  -1.338455901752713 1.17270044522502 0  0.9276044378498113 1.539263959688278 0  -0.7990592895003201 1.612943246135379 0  0.2468418702702485 1.789206682045508 0  -0.3036092061160235 1.865016073097667 0  -0.5080175925802898 0.1153959213304196 0  0.5081722803973437 0.2336881206084334 0  0.282547965109365 -0.2134723968619226 0  -0.3034881604476973 0.5882068972039424 0  0.2084628208137757 0.6404518161215095 0  -0.551468450904552 -1.846852599405029 0  0.3945545441144092 -1.884542756847714 0  -1.357978680593015 -1.370238892797842 0  1.266848786070899 -1.495684782510238 0  -1.860136370934144 -0.5592405799065666 0  1.776331519667127 -0.8707825998863776 0  0.2622082504315431 -1.282993301116742 0  -0.3747455464686743 -1.255251885600787 0  -0.1919730535316644 -0.2568664470088256 0  0.8424663226188482 -1.031694319425254 0  -0.90025651631786 -0.9701533170847556 0  2.008166222022675 -0.08980682392714288 0  -1.418977005087525 -0.4250775674709997 0  1.243446108595545 -0.5731481395756979 0  1.88269275765413 0.7244471644583618 0  -1.973181306345522 0.2901584715529265 0  -1.740512123009343 1.025880793915845 0  -0.08459524823958021 -2.042571927768661 0  0.7980269421581887 -1.876447977826781 0  -0.9509268780391302 -1.806259733532791 0  1.363103097821483 1.460483293513272 0  0.6693730798197708 1.893569183513109 0  1.423991635934184 -0.01588757043734592 0  -1.228166661120261 1.593905085016805 0  1.597623129845271 -1.294057420204002 0  -1.102359379796453 -0.6590537680717631 0  -1.690925448575675 -1.167422204671162 0  -1.433258343585433 0.2217877694573605 0  -0.3935353457272087 1.491114599708045 0  1.378417061955986 0.589809390765736 0  -1.286494696068963 0.7645574817040864 0  -0.9359818278334672 1.224670534471527 0  1.050147391536332 1.133588966078321 0  1.990118866261187 -0.5621111705060124 0  0.5209981842352569 1.479274065553957 0  -2.059252746028521 -0.2424223983439119 0  -0.02635236289629456 1.539379476024806 0  2.06974072565273 0.2667413674475302 0  0.005186075764294772 2.072786755683286 0  -1.962786661792698 0.7606615735374572 0  -0.662696451048581 1.96276101030998 0  -1.629897212249301 1.345847694515131 0  1.727284183808675 1.223723407853275 0  -0.05662101035050519 -1.290282261405892 0  -0.6216287011330549 0.4377990210338498 0  0.6032879708844883 -0.1050223141578619 0  -1.374392055372358 -0.1040292112612796 0  1.188536183715893 1.746216223156673 0  0.501049007417917 -1.063120361931888 0  -0.5219903457955806 -0.2400553553517122 0  -1.023588603996477 1.852014206345521 0  0.5447762764195487 0.5805970004318445 0  0.324000621104689 2.100385158558036 0  -1.763333076032246 -0.8595292529897094 0  1.159717572403735 0.8258331306774932 0  -0.04761999424763944 0.851168129780312 0  0.03778867954691963 -0.4730714229659237 0  0.7541787293482494 1.256168906262994 0  0.9559769400474794 -0.7370576007062263 0  1.097239473524013 -1.226805247572959 0  1.397561647230849 0.2847806828623594 0  -0.6609504613778455 -1.157036937030945 0  -0.5463321965733577 -1.528019714119717 0  0.9900877349527617 -1.634293350670109 0  0.2349945862713735 -1.603184170401188 0  -0.6585491687154957 1.344173336986679 0  -1.116405972843125 -1.55251547218761 0  -1.078209208177249 -1.226871174354236 0  1.552480266088624 -0.6532563621272885 0  1.359292958637758 -0.3037825200331335 0  0.2087151424183554 -2.128116807016447 0  -0.3841423267578279 -2.103493692912623 0  -1.108716772322914 0.9915303917859254 0  1.7109880634408 -0.0872425674906933 0  -1.403570460190087 -1.655575763937049 0  -1.377416099850396 0.4971124409243284 0  0.9605186021464195 1.935309901672582 0  -2.169336430016212 0.08454732515639034 0  1.237238802231399 -1.778317493460069 0  -0.2722899882009245 2.152788158534418 0  0.2393985351928872 1.43278917874056 0  -2.031556441567474 -0.7779630157612792 0  0.09674875620080044 -1.838718768746264 0  -0.54703482388
[...]
<PointData  Scalars="f_3493-1"> 
<DataArray  type="Float64"  Name="f_3493-1"  format="ascii">3.4389941325242157e-01  3.4127481574241636e-01  3.2601237047973797e-01  3.4138474083107812e-01  3.2983624663574390e-01  3.2963213036286260e-01  3.4590137422703082e-01  3.6078746887346624e-01  4.0604943271074040e-01  4.4401650998095249e-01  4.3719784117147725e-01  4.4587373635350930e-01  4.2331739019591502e-01  4.1504942313823207e-01  3.9249543982713975e-01  3.9071183796321912e-01  4.0460161469496903e-01  4.0765319640362924e-01  4.3315370118599794e-01  4.2437606613981804e-01  4.4081748089936934e-01  4.3474314690758342e-01  4.1465194832992663e-01  3.5800381943114057e-01  3.3450160563651732e-01  3.2962723436669328e-01  3.3832315686061232e-01  3.5020174392332531e-01  3.3691867496581662e-01  3.4613342080912513e-01  3.4497863317574612e-01  3.4454168171652938e-01  3.3932441612837316e-01  3.5753764815471140e-01  3.4833049040852426e-01  3.6392991667319236e-01  3.5607552128093917e-01  3.6091346260189006e-01  3.7052557477797671e-01  3.6305256460174129e-01  3.6633655149017363e-01  3.6278020927486188e-01  3.7973280826328598e-01  3.7784003298028890e-01  3.7059470823888374e-01  3.7358076405557988e-01  3.6246343130546194e-01  3.6274632915594190e-01  3.6976691942294709e-01  3.6817578183557292e-01  3.7268280597779024e-01  3.6217850689510156e-01  3.5930600554737679e-01  3.5827721242226845e-01  3.5518093332347622e-01  3.4925328169801512e-01  3.3686917909627911e-01  3.4703904641644306e-01  -9.1919649702752612e-02  -3.0533989970726854e-02  -8.0209281302624488e-02  -1.8635677243444115e-02  -1.3556012850438448e-02  -8.5550782907669431e-02  -7.7644975638010330e-02  -6.6565696770131300e-02  7.4432219868052095e-03  5.7510203172104297e-03  3.9394534924845747e-03  2.8365108169846726e-03  5.2635795947095776e-03  1.2884684659734682e-02  2.3284490424502792e-02  1.7401721683961025e-02  1.5878194599016300e-02  1.9441596808694735e-02  2.3932129602270865e-02  1.6059328382289597e-02  1.7044554029273545e-02  2.4985468208493233e-02  -4.5745934189237100e-02  1.2506164409962753e-02  1.5591103632897977e-02  1.2070065913205858e-02  8.8891549968953057e-03  -1.1010691542098045e-02  -1.1675156527726048e-02  -3.1391150570234228e-02  -1.1183153172672699e-02  -2.7025209816519753e-03  -5.8051501470731651e-04  -3.5371980685521436e-03  -3.2105200838783897e-02  -1.3959905593135445e-02  -1.9032819968983650e-02  -8.8639550023241045e-02  -9.0446055058317529e-02  -8.9175271601791367e-02  -2.2261628689046298e-02  -1.1877404591346589e-02  -1.6841355130145810e-02  -6.2200415645816088e-03  -1.2015497553401023e-02  -1.7007222923247703e-02  -1.3840309859893511e-02  -1.4085039898497185e-02  -3.7739304498424449e-02  2.4316647327760105e-03  5.7930210752361209e-03  1.0597464219326185e-02  1.4070448499937724e-02  1.5663785764780835e-02  1.0183331079230059e-02  1.6587663251489727e-02  1.0854224116165746e-02  1.1073679372820198e-02  1.7163318633842187e-02  7.2893447967968105e-03  7.6115543666958156e-03  4.2275771036301901e-03  -5.7367493860281393e-02  6.8332718914243572e-04  7.5328045507741040e-03  1.1177324599221437e-02  -3.5656409704930155e-03  2.6360931776631634e-04  -1.9095288816519455e-02  -6.7103934697522391e-03  -1.5258143906675932e-02  -1.8050024965229807e-02  -1.2060055601694123e-02  -5.0125985811169768e-02  -2.4923220568181730e-02  -2.2304620799579108e-02  7.9575699419746448e-01  5.9594395896627773e-02  5.7444743526356506e-02  5.4587003769865167e-02  4.3625962098864136e-02  3.8221276927723091e-02  3.3371926741208362e-02  3.3834250958958700e-02  3.6809780113806652e-02  4.1916036389273291e-02  4.8962853959509965e-02  5.3771618005517899e-02  6.2528409913980898e-02  6.5517701428381939e-02  7.0648678747188068e-02  7.0083550711268192e-02  7.8511341440162574e-01  7.7902935779713656e-01  8.1883587961052728e-01  7.7139629238113927e-01  7.7120076156308814e-01  5.7921245123713737e-02  5.9290778954000853e-02  4.6077816243995796e-02  4.9860798532578618e-02  3.2838539957559504e-02  3.6100346807652235e-02  4.9777531062529759e-02  4.9381293588613782e-02  8.1909259999052952e-01  5.1762345413025594e-02  4.7160421510577352e-02  3.1951187877084168e-02  3.0539172734914497e-02  3.1749976872161308e-02  3.9675433932460584e-02  3.5571841014600980e-02  4.6005099108710236e-02  5.8018984044875072e-02  5.5773458989054454e-02  5.3101031739760621e-02  5.4756043686394869e-02  6.6016710433052322e-02  2.8579744827202918e-02  5.8597001363538313e-02  4.1867542527977059e-02  2.9675728259197520e-02  3.7954926389344383e-02  3.2723243391659863e-02  6.7492744323546475e-02  3.9733292520493679e-02  4.4627894498642039e-02  5.8314407389863869e-02  5.3799469226427137e-02  3.1131219570331086e-02  6.6069082572359203e-02  3.0475206702344368e-02  7.3466545759983223e-02  3.2551852886868023e-02  6.8818624171261666e-02  3.9347125536659623e-02  6.5927713330439480e-02  4.9511965141676564e-02  4.5617899497009708e-02  4.5810641384518243e-02  7.6615823079368195e-01  7.8229427717667455e-01  2.3730173598572435e-02  5.7684560645044763e-02  5.6092726655193867e-02  7.9707591836924441e-01  6.1216661555776701e-02  7.5819263170478324e-01  6.6669084718329635e-02  3.5170115284549393e-02  4.3513363407809209e-02  7.6246556431284296e-01  8.3326112009807152e-01  6.2040851137919607e-02  3.9181897719475341e-02  5.0549686222898266e-02  3.0883185238765432e-02  5.2855955789593137e-02  5.7638441695834590e-02  5.4756689792340399e-02  5.9524554846796439e-02  6.6839543205581456e-02  5.1301234108155055e-02  4.9208316905274184e-02  3.5818802616416720e-02  2.8042079377850995e-02  5.5885324700751866e-02  5.5162152772213965e-02  5.1838807519919865e-02  3.3348765194541913e-02  4.3801379829144921e-02  3.9363258381985330e-02  5.9843443141859173e-02  2.9730785035116013e-02  4.8259307989005122e-02  6.6129972145553356e-02  7.9710517684134230e-02  2.8867294789280667e-02  6.0360767550940116e-02  6.8558909848891986e-02  4.1084699403925166e-02  3.5045303596886408e-02  3.7806080437561930e-02  2.9406073134362061e-02  7.1285593922733204e-02  5.3428779574676177e-02  5.2125313985578806e-02  4.3821056263802942e-02  7.5215885744999600e-01  7.5493536294266106e-01  5.9495171731311226e-02  4.3303626295813531e-02  5.9730201172864573e-02  3.8989693634547871e-02  7.4384700049761421e-01  8.5655713357281993e-01  3.4666176456363308e-02  8.4744156778969371e-01  4.2446773707538028e-02  7.7983380423604143e-01  4.6505535396520734e-02  6.5591480517289857e-02  8.0211486400572773e-01  7.8356342345336916e-01  7.9981857593601158e-01  8.0649709047707208e-01  7.4645923343445564e-01  4.8374242657427888e-02  7.7944027356733592e-01  4.0144405391164303e-02  2.7775958807059502e-02  4.2236775149437397e-02  3.3239155285290499e-02  2.7050278026979770e-02  3.3165164122138407e-02  4.6937437137343052e-02  3.4064558321926175e-02  3.4484343426854712e-02  6.9750490667654416e-02  5.4976652108568690e-02  2.9293955313792704e-02  3.0159678509240524e-02  5.8977097892780363e-02  5.6854000162101723e-02  5.1748733937101832e-02  7.5506790679147798e-02  3.4042665461123500e-02  4.7575695407543687e-02  4.7175475819815342e-02  6.3430905294102641e-02  7.6427192612364292e-01  5.1428298507868710e-02  5.4952211663667531e-02  5.8297219809006554e-02  3.3169433601391386e-02  3.9896718696696754e-02  3.2730958808931565e-02  3.4228536817176129e-02  5.4302500335371852e-02  4.5412168388619757e-02  3.9395118427686178e-02  5.1233004526976808e-02  4.0340687449750293e-02  7.6602167732746229e-01  8.0726451350482276e-01  2.7852358983829411e-02  7.4945521897769796e-01  4.5751752828933505e-02  5.3225335919995106e-02  5.4729937752200510e-02  3.8976870034027139e-02  7.4010910814457687e-01  4.9779031886841907e-02  3.8614213247493222e-02  3.1503648081910682e-02  3.1804705702818167e-02  5.5818213175385822e-02  2.9758102105465690e-02  4.6482324265186468e-02  6.2269144087882672e-02  5.8987939941747114e-02  5.1317460018982047e-02  8.4424325805313150e-01  4.2110182165879813e-02  3.4388482227789681e-02  3.7851764544868792e-02  3.8929972850043293e-02  5.7472441549153652e-02  6.8521406308732935e-02  6.5834645754642054e-02  6.6317126495638271e-02  3.3544232529146394e-02  6.7401838264749978e-02  6.0608400654019789e-02  3.3871603566501443e-02  5.0361804949078541e-02  4.3384364918212251e-02  4.5381141832062287e-02  5.6323367939863117e-02  8.5891826393945422e-02  5.8993996774805491e-02  7.0240323057429485e-02  4.3859204622472017e-02  5.1149601315951095e-02  5.3215283180410404e-02  8.2713796706524692e-02  6.0668924571270919e-02  3.4964520276414508e-02  5.9740031941905324e-02  7.9076823942083974e-01  5.3032981474221447e-02  5.1786488143485181e-02  8.1546987024291445e-02  6.4513621111914443e-02  3.8467639990425150e-02  4.2268105467174591e-02  7.5930139679215830e-02  4.8095054184457774e-02  5.7440769298072701e-02  6.1560095758121762e-02  5.3093363369281221e-02  5.2775656744567544e-02  3.2960283848930003e-02  4.0257201799309493e-02  8.2891714620791354e-02  4.9904345738454814e-02  6.8097756313658733e-02  3.2776753414038531e-02  5.7822887764768634e-02  5.8142736866570094e-02  5.7677093947463905e-02  3.1450692680723501e-02  5.4560173526661253e-02  5.4237364953383646e-02  2.6784683037560472e-02  6.2794594345665422e-02  5.4440129720338105e-02  6.2464532560765625e-02  5.4820458073919096e-02  2.6275563569180271e-02  6.4267186587080374e-02  5.5233767074308271e-02  3.3470460148558881e-02  2.3696441801845651e-02  4.5802404655429466e-02  2.1286030140188556e-02  8.1368024450204668e-01  8.0049299157849829e-01  9.7160298519973570e-02  5.3842048151368220e-02  1.1887710832055504e-01  3.8853185324956560e-02  7.4469850042297364e-02  4.6142691139601663e-02  7.7595888176885663e-01  3.4827547667587860e-02  8.1589460348330881e-02  7.9268319780859231e-01  6.1668945242841916e-02  3.0039300938485752e-02  2.3716561725967998e-02  6.7789850518327116e-02  7.7150732211401163e-01  7.0079289099129513e-02  3.9281637675130016e-02  6.5110996142892244e-02  7.8007733130719348e-01  3.3239019294265100e-02  5.3706484247055687e-02  7.3540335180941874e-01  6.5169095958709539e-02  4.3552208098969585e-02  2.4870441099333281e-02  6.0351040841683683e-02  7.1191644600107540e-01  7.0224543761767011e-02  7.0455832305108643e-02  4.8317221582428620e-02  8.3582501867019154e-01  7.1651573181790565e-02  3.3665794799239805e-02  4.2273735616284586e-02  3.9046341955496139e-02  4.6081280923555588e-02  7.1403799794413692e-01  7.1988257687238733e-01  7.7415477463000582e-01  7.1781188516221006e-01  5.1468284856987984e-02  3.5749263127533563e-02  3.6095926659039927e-02  3.1616322122869564e-02  3.6139170439846165e-02  6.9489155066959174e-01  6.1681213177427148e-02  4.7003718813115193e-02  4.5543824556226506e-02  2.1451659555535685e-02  8.2054509111133422e-01  4.0828225778319835e-02  2.5418712024403753e-02  5.6074879444646633e-02  2.4677000092171129e-02  3.2530242440562650e-02  7.7129805523329020e-01  7.0755650671165804e-01  8.0539647076867438e-01  1.2718285777260596e-01  8.4700247881739313e-02  7.7557027515371579e-01  5.5640567688708016e-02  4.6191098179459163e-02  3.8635033323753225e-02  5.9347592853954412e-02  4.8475257120296364e-02  5.1186464192463393e-02  8.2325143245684229e-01  7.6969560193544762e-01  3.1484591875446041e-02  3.2305634522881890e-02  5.6056641487579523e-02  2.8891941817689060e-02  4.1419637141122789e-02  6.9826768936105432e-01  5.5951979473344661e-02  4.3543308027056499e-02  3.5929804157985835e-02  4.2776877739167010e-02  4.2659966537937251e-02  2.8118342664123774e-02  7.1823195386788952e-01  7.6567703302224377e-01  2.8577097542995512e-02  3.2066844499374650e-02  4.1227478847544519e-02  4.5532160488100298e-02  4.8166853904538773e-02  3.3559810207058623e-02  6.1475642902629996e-02  5.1977975151664697e-02  5.4181412683353782e-02  3.5495570747939950e-02  4.9915878926857664e-02  7.0441783228968424e-01  7.8501752425088867e-01  7.9541803582950354e-01  4.5715496698998208e-02  4.5531814777027703e-02  7.7138032492342890e-01  3.9050244775379828e-02  1.1632156217400771e-01  5.2059216464327790e-02  4.9125498326135206e-02  5.5639843309695611e-02  4.9458104807373761e-02  1.0619999007651866e-01  4.1483371694098971e-02  6.9831029802973885e-02  4.8343543596733457e-02  1.0938977175144837e-01  3.6767133647804574e-02  5.6242991637561912e-02  3.4604094827868456e-02  6.8949747355745661e-02  3.5892859578531368e-02  2.9308088562604785e-02  8.2799525429117149e-01  4.0278548576444702e-02  3.4029998169559289e-02  5.8188352383817588e-02  7.8853572180983023e-01  3.6913011106666740e-02  3.6201154035503114e-02  3.4335566647765790e-02  6.9427253717655582e-02  7.7341980188940895e-01  7.7885725338206102e-01  7.8638272345996429e-01  8.0524738663542983e-01  8.0754547499766283e-01  8.0241355090051558e-01  7.9340283621129803e-01  7.8861224393898888e-01  6.4882670173393497e-02  5.2953793555856991e-02  6.0130068567379714e-02  5.9719861228807708e-02  2.2293598836141324e-02  5.5888217702794118e-02  3.2044511921128581e-02  7.7711167404049675e-01  5.8306300811321148e-02  5.6599478984668189e-02  4.2269125183785658e-02  5.5866039278897703e-02  5.0015190754336435e-02  5.0432940304029499e-02  4.7197875594546933e-02  5.7222620457224177e-02  1.1224036578945018e-01  9.5322043749943450e-02  3.0677440014055878e-02  4.3339511233803148e-02  9.7220559318672573e-02  6.0083566454082499e-02  6.1862062146668943e-02  5.1782457531299828e-02  5.2336460564738958e-02  5.1862283657129180e-02  8.1496876996702550e-01  5.7059777533124162e-02  4.8858921550362026e-02  3.5028587089293219e-02  8.2858731949355624e-01  5.9209912813835058e-02  5.8739778521054525e-02  8.0921649051298772e-01  8.0841349701776544e-01  5.1037966028127831e-02  3.2386153818196865e-02  5.6724774173019112e-02  5.6968243957019903e-02  5.7578573083797387e-02  3.1501681988711533e-02  3.5897098772002034e-02  1.3833739581428323e-01  4.2058435362265924e-02  7.6481156767659597e-01  6.0916950819503109e-02  5.6886974645196667e-02  4.7874222759918379e-02  4.7964881481471877e-02  5.2289107026232649e-02  4.3954091787284606e-02  5.0817998257578455e-02  1.2887507347789118e-01  4.9598013024460839e-02  5.9298591592380677e-02  5.6852262562729100e-02  2.2916114243338240e-02  6.8485226810476266e-02  4.7975354995617239e-02  2.3498660730642648e-02  2.9772962969141434e-02  5.1758342775778156e-02  5.1730026380651294e-02  6.9801088107526221e-01  2.9513350464505317e-02  3.3514461825462714e-02  4.8173258942224448e-02  4.6841291315066785e-02  6.7847664919271833e-01  6.3283950332660321e-02  8.4186943515246249e-01  3.4246546154356211e-02  1.2797395435465039e-01  5.7043758681724725e-02  3.9253752197221173e-02  8.0813576582226793e-02  1.1478661766208569e-01  3.4946687923314818e-02  5.8700500911210589e-02  4.9383993169655999e-02  7.9929520881433891e-01  8.0438394913286015e-01  6.8602641985191698e-02  6.7199923838241277e-02  8.4563184419469126e-02  1.3023056886047385e-01  3.3226628238759388e-02  3.3257847693854141e-02  3.1762562561324870e-02  6.0463475679644572e-02  6.2579052673597840e-02  5.9098151124817387e-02  6.4401410744148158e-01  2.1335891581727211e-02  5.2336414898156582e-02  4.6740683592737510e-02  2.4767357905929255e-02  1.3344875145801297e-01  3.7727260101768550e-02  6.7718825793155413e-02  6.9001795249387834e-02  5.7863064664329278e-02  7.0855972389918295e-02  2.4842144296233264e-02  2.5153130014812775e-02  3.2413665511290359e-02  5.6440794041390047e-02  8.1881311637988863e-01  4.2785742173787944e-02  4.2597798812474108e-02  3.3905204778527528e-02  6.7649791011906921e-02  7.6589682694957528e-02  1.2238669890384350e-01  7.8643493373554030e-01  5.2628083382305485e-02  4.1643798271525916e-02  3.6002756960350456e-02  6.6460625389252470e-01  6.6494444276082798e-01  1.3831755190853262e-01  4.3038395003456791e-02  4.2260446731509443e-02  3.7720537527729442e-02  3.9237774780352494e-02  3.5374409134342824e-02  3.2296008318806337e-02  1.0773398863414888e-01  3.5032947511552344e-02  5.9485940742247008e-02  6.0132395428600618e-02  5.9349173486449955e-02  5.5472035018539860e-02  4.3230962935586446e-02  5.7188446198653306e-02  3.6469985428505283e-02  5.9747615824549155e-02  5.4006383763414337e-02  3.2976191342046754e-02  3.2163743033242695e-02  4.9688126215863743e-02  4.7597535313817899e-02  5.5236343892603713e-02  3.9449494238523390e-02  3.1048748863894863e-02  3.0021676874080517e-02  6.5123511402990927e-02  2.4756329964919842e-02  3.7634304293200097e-02  8.9025261061740468e-02  7.4690429020818641e-02  6.0269830379432912e-02  3.6703027807976671e-02  3.9757207399800612e-02  3.7440183316763478e-02  1.2797885352446711e-01  3.5682204365913704e-02  3.2776717258341144e-02  9.1562009494959948e-02  3.7829118177903374e-02  7.6504793505154223e-01  2.7958584647505298e-02  6.1637995001501626e-02  4.9224636964120973e-02  4.6015219575219785e-02  4.8344368496194917e-02  7.6046895089146116e-01  3.9901793855668430e-02  1.0652314730372514e-01  3.1890179571861757e-02  3.3973059291482206e-02  2.3897581112869416e-02  7.7680861889356279e-01  3.7287816310208350e-03  2.3293113763166676e-02  5.0649863054727219e-02  6.8725448143233073e-02  6.7242243859368139e-02  7.7435621405341015e-01  5.9493185849734821e-02  3.6766689653897379e-02  6.4328687308976507e-01  3.3236426048031925e-02  2.4232335498590957e-02  2.6041665397318031e-02  4.4669266969833046e-02  4.1194492751287261e-02  7.0104836636511292e-01  5.3585885053970182e-02  7.0252338996185215e-02  5.9155507288889013e-02  3.3552711079655621e-02  5.2649092060552544e-02  1.2413096771108866e-02  5.5103306589226249e-02  4.7549488502805534e-02  3.5543282700339712e-02  4.4160029524329687e-02  4.6012105979947628e-02  7.1107924598198063e-02  7.1394009063815017e-02  2.9016154130965689e-02  2.7867355641287481e-02  5.8635420329777019e-02  3.5601919281172699e-02  4.2351961287214190e-02  6.4070227800062329e-01  5.5610372989070990e-02  7.6248507891382034e-01  6.3387887492858522e-02  6.4246568464381981e-01  7.7491608389373179e-01  3.8211434391208790e-02  4.1244672950169058e-02  6.1461975414407133e-01  6.6131575227628692e-02  3.3020234586322750e-02  7.6198647997441726e-01  1.0244286961769829e-01  4.8271684331097645e-02  1.4081767099589179e-01  4.5498400991277124e-02  6.9491039370750865e-02  3.0847181904093881e-02  2.5623135383239046e-02  7.7504534517078338e-01  4.0415830002938455e-02  4.4479824822861468e-02  8.2768760589633805e-01  7.9625202030579623e-01  4.3088740334375618e-02  5.1748283998823474e-02  4.7212616642456781e-02  7.5839421328223455e-01  4.6054728282930814e-02  7.4100119485540461e-01  7.0551863918997412e-02  8.0466356596942445e-01  5.9463476216946996e-02  6.4224927236671128e-02  3.2472095164355674e-02  5.8540355387517944e-02  5.5147789924200698e-02  3.8777410598360831e-02  1.6659748875981750e-01  5.3143677249036167e-02  3.3931154393104228e-02  1.1337299144630445e-02  3.3883762883490071e-02  1.0188549554917571e-01  5.1765943034208221e-02  5.8767716971222177e-02  5.3018665217561545e-02  5.3191784617436851e-02  6.1499268774277589e-02  7.7599179439615418e-01  4.6040210489426699e-02  1.0338609137818659e-01  3.3188950084205159e-02  1.0435746330684631e-01  3.3484686287970356e-02  3.2990889641431077e-02  3.2302891248678772e-02  4.0385732254263271e-02  3.0818078722413465e-02  6.0515053544211794e-01  4.4773822987980570e-02  4.4299913496003498e-02  1.0065445323210370e-01  1.2569222756001072e-01  6.0433955773386588e-02  7.5843799999456862e-01  5.9711188044970213e-02  5.6013139077578232e-02  3.4219574331937591e-02  6.4838829313175461e-01  6.4080464431157025e-01  4.8423218362949418e-02  2.6510688614990990e-02  1.1449713719803496e-01  5.4302382423013655e-02  1.3751090326832704e-01  1.1124253023659950e-02  8.0470514139101157e-01  1.4930978738131045e-01  5.8846188994229276e-02  1.1901808622658322e-01  5.9674722068974083e-02  5.7864968187562454e-02  6.6319909457860274e-02  6.6079539321682382e-02  5.2551688850750969e-02  2.6326108718561590e-02  3.7547174197500303e-02  6.7483396609780227e-02  6.8018248199939485e-02  6.6945294910348188e-02  3.0541722599074832e-02  2.9752640796797354e-02  3.4144899778266187e-02  7.6631507517478825e-01  1.0352275525765496e-01  4.5444120531168600e-02  7.3017033737310888e-01  4.5373907956925023e-02  5.8099289060666942