<?xml version="1.0"?>
<VTKFile type="UnstructuredGrid"  version="0.1"  >
<UnstructuredGrid>
<Piece  NumberOfPoints="1537" NumberOfCells="2944">
<Points>
<DataArray  type="Float64"  NumberOfComponents="3"  format="ascii">-0.9915582904695904 0.3314657699961692 0  -0.9862064588223357 0.2200858543024814 0  -0.9678137586525072 0.1084824200936556 0  -0.9364160615330157 -0.0004501849544284679 0  -0.8930497595094801 -0.1043414462024471 0  -0.83776660891114 -0.2032600108417554 0  -0.7720183434150703 -0.2945707156808093 0  -0.6965382898120602 -0.3775278884787673 0  -0.6156741082000017 -0.4487853082831545 0  -0.5332769504436228 -0.5073190719857766 0  -0.4498315739648659 -0.5549661854002461 0  -0.3632921069751475 -0.5940138684284146 0  -0.2746431823586134 -0.6243256152527149 0  -0.1851131687211176 -0.6457218812354631 0  -0.0938283486288983 -0.6587506628950008 0  -0.008431365446999597 -0.6628009430392494 0  0.07032882402348646 -0.6597168254618173 0  0.1600756168885005 -0.6481366720929089 0  0.2482410881184907 -0.6282415067689292 0  0.3367011560640598 -0.5994329085786279 0  0.4222012028627302 -0.562525741561206 0  0.5053374502494127 -0.5168465839193561 0  0.5857255142315139 -0.4620841828520922 0  0.6650146340631347 -0.3954356917126656 0  0.7412199039440102 -0.3160589255569646 0  0.8093043264155201 -0.2271406856745695 0  0.8672045154123644 -0.1307450717332479 0  0.9139678712622115 -0.02763909424430272 0  0.9485353440420389 0.07957691451452359 0  0.9705244031878142 0.1901393215500024 0  0.9794779413841245 0.3016821197930505 0  0.9756315315652243 0.4131291391748836 0  0.9590166082528686 0.5233382611996485 0  0.9300434240074525 0.6305523502843605 0  0.8889235752762673 0.7336435004701071 0  0.8370683707523113 0.8308202121692925 0  0.7744099536646369 0.9216595951692927 0  0.7020649809912457 1.004519963467813 0  0.6203556204577995 1.079342007690536 0  0.5303784447424067 1.144579890718588 0  0.434865486672844 1.198593194917944 0  0.3328777829578867 1.242188011191941 0  0.2272867053863488 1.273876667579019 0  0.1190283112772884 1.293749904548912 0  0.008842626447764138 1.301539274191188 0  -0.1024998998719047 1.296891903251512 0  -0.2118824836851093 1.279912478890534 0  -0.3188014657029615 1.250741860566649 0  -0.4205643379527094 1.210313282209104 0  -0.5178927944920694 1.158768638998657 0  -0.6091984502108023 1.09632701192189 0  -0.6925460902273579 1.024483323972258 0  -0.7673552798903146 0.9439548456411306 0  -0.8331647558028009 0.8545974456459892 0  -0.8884508165364701 0.758496376795209 0  -0.9321318608639256 0.6574059569597335 0  -0.9644393490320747 0.5512085099686568 0  -0.9842384573957071 0.4420036666852307 0  -2.838246703713952 0.1025270922691432 0  -2.838244053644675 -0.102533810034366 0  -2.82344864612117 -0.3070637833011112 0  -2.793916374397775 -0.5100590741871727 0  -2.749946569934252 -0.7098174761926445 0  -2.691235217166875 -0.9073622299443763 0  -2.619172273852549 -1.098166234107116 0  -2.532810437993583 -1.284775356656596 0  -2.433294740323767 -1.464626768569963 0  -2.321595172974055 -1.63595033683346 0  -2.1974134734215 -1.799308416675248 0  -2.062217065038664 -1.95277449569273 0  -1.915563317522605 -2.096783523471442 0  -1.759261193545069 -2.229547434956664 0  -1.593352839370959 -2.351014562350979 0  -1.420526895191996 -2.459298314498308 0  -1.238840908787486 -2.555594562390157 0  -1.050775633213348 -2.63854791061116 0  -0.8581624593069767 -2.707340154224167 0  -0.6605151063619079 -2.762225797187959 0  -0.4594208002513124 -2.802688679316183 0  -0.2565124506678657 -2.828474656316724 0  -0.05072008752680379 -2.839625407426694 0  0.153210612263234 -2.835942658048538 0  0.3585421904479451 -2.817355498726485 0  0.5598063211340844 -2.78436115149994 0  0.7597835329333302 -2.736534141351642 0  0.9552666058348878 -2.674557338000229 0  1.145767391189955 -2.598658449064408 0  1.330302349465615 -2.509206412222228 0  1.508384389234747 -2.406412605685874 0  1.677192662052641 -2.291957397931421 0  1.838991104181505 -2.164295428139461 0  1.989993314276471 -2.0263440436988 0  2.131107206308022 -1.877371105598406 0  2.260684269080643 -1.719123082666824 0  2.379069848906091 -1.551097345063307 0  2.485049074427641 -1.374986517216258 0  2.577574218232275 -1.192577502191707 0  2.656936446079313 -1.003415452165688 0  2.722409337597396 -0.8090994889006714 0  2.773706267376927 -0.6104751502073343 0  2.81043599642009 -0.4092718714741307 0  2.832710089496596 -0.204469858567408 0  2.840090667600941 -2.394077005755412e-06 0  2.832710963336856 0.2044680947719048 0  2.810459096155829 0.4087923608873641 0  2.773557896254822 0.6110748957897463 0  2.722552669090758 0.8085444110177669 0  2.656870919916908 1.003396570042403 0  2.577387962431609 1.192948703042998 0  2.484858970599966 1.375357409554886 0  2.379108256269685 1.551131313984665 0  2.260985998144282 1.718748602870743 0  2.131028764567057 1.877460527144914 0  1.990368220481369 2.025957337131009 0  1.838606888525795 2.164561265998313 0  1.677608159580934 2.291597234010365 0  1.507435945200119 2.407008092041629 0  1.330805437914843 2.508985574475962 0  1.145280849953837 2.598919919960339 0  0.9558147882716826 2.674411236785968 0  0.759788635344634 2.736533842039242 0  0.559807807919746 2.784363477610702 0  0.3585417142150735 2.817357352257367 0  0.1537565133350821 2.835871550356625 0  -0.05183330736927712 2.839608851520786 0  -0.25549306785919 2.828564692467715 0  -0.4599401224922842 2.802593254242538 0  -0.6604522330232866 2.762239868695836 0  -0.8581720748369343 2.707342033125486 0  -1.050785636855066 2.638545886369298 0  -1.239355536965201 2.555396566975135 0  -1.419559558946299 2.459859458823618 0  -1.593784048135089 2.350672760937066 0  -1.759264845894516 2.229545172840022 0  -1.915992802367784 2.096430287949922 0  -2.061500076111203 1.953522993311923 0  -2.197408886278728 1.799221147249193 0  -2.321816559769094 1.635615472350796 0  -2.433555980763107 1.464218127227294 0  -2.532641825504911 1.285217718600997 0  -2.61893268861004 1.0986671709507 0  -2.69158549611037 0.9063115048242139 0  -2.749688301339815 0.7108088522773631 0  -2.793999149901618 0.5095327879471125 0  -2.823437224012785 0.3071271117451458 0  0.08022621281334658 -1.751281684760916 0  -0.9357941108356249 -1.516934353361496 0  1.090143273774909 -1.416701993774913 0  -0.008133823846289865 0.3325098800339053 0  -1.66611832777582 -0.7836132911382027 0  1.718254120631703 -0.6691903691953009 0  -1.911593079011748 0.1222494289874772 0  1.901167168420203 0.2475698541929978 0  -1.743127270683683 0.9498967247321128 0  1.682116769374231 1.057454446171549 0  -1.21600959797758 1.640147810719552 0  1.156377156905657 1.683010176763084 0  -0.4628463227838372 2.015281819024315 0  0.339701989082644 2.043758888355753 0  -0.5352113561929444 -2.075517687423414 0  0.7992560618623389 -2.018077752475606 0  -1.61614917316371 -1.449200473917832 0  1.722691230459564 -1.414215690139253 0  -2.197196328428266 -0.4908658131805929 0  -0.2565401536964561 -1.262316576628067 0  0.4514325000081698 -1.258766384132125 0  2.207183050908874 -0.280325114551637 0  -1.013233554513466 -0.9253551659523973 0  1.115323722982865 -0.8206705858728351 0  0.2067640603334391 -2.297317378240977 0  -1.073452295658785 -2.046094840023285 0  2.151947230057065 0.7599229732134021 0  1.318644993017715 -1.904657371013956 0  -2.201392357588819 0.6422355169841165 0  1.402165074921463 -0.2378697528623748 0  -1.455580531098635 -0.2567983875849471 0  -2.032931762645374 -1.152913895202891 0  0.4867927579849793 0.410671747498896 0  -0.5056133765625355 0.3692482517965332 0  0.006924704109805006 -0.1395587857436913 0  0.156576069897208 0.7912633275206581 0  -1.74290828802822 1.5044809491598 0  1.678401680874682 1.59741324898409 0  2.084620751415433 -1.046083332507872 0  -1.510919690797747 0.4594167452761794 0  0.8644140089553143 2.150571836969393 0  -0.9766640420367384 2.11078022535911 0  -2.367266772824939 -0.04558357073018355 0  1.447806820657784 0.4060455910699934 0  2.369924144034619 0.1578136661713292 0  -0.07264335120943692 2.340977456334844 0  1.201152218451818 1.177002094263992 0  -1.266943296617943 1.123370019881595 0  0.6563782389680595 1.647924820921391 0  2.10047625780174 1.189756686133815 0  -2.163436965641395 1.071641052105876 0  -0.6631891315499037 -1.170645883287563 0  -0.6823346589889632 1.595222452742981 0  -0.05215640532458948 1.770684104921602 0  -0.3257560276546315 -1.688616612514829 0  1.504933799570592 -1.036709580240446 0  -1.124098382180509 -0.5316845701347146 0  0.7164238816276657 -1.598273038316281 0  1.308254959796251 0.7825502603711392 0  -0.3032422877029228 0.7768101833716629 0  0.6922764839720884 -0.9301533917230341 0  0.4090891600043506 -0.01557281391211319 0  -1.306781312394039 -1.713699967026232 0  -0.3934714371254909 -0.04771955980452471 0  -0.2239331588478631 -2.390069363656456 0  -1.558428447441516 1.875022558036863 0  1.469761033360585 1.948134520185189 0  -0.6648161347391448 2.364851742823693 0  2.316518084648588 -0.6893218689531687 0  -1.244655413824957 -1.264250282895919 0  0.3056867203173079 2.437210388549985 0  1.804586912011813 -0.2982241897427948 0  0.09416866232403955 -1.343275691242594 0  0.4447016386622409 -1.856749549976993 0  1.758346570061466 0.6726530199984535 0  -0.9671428039793324 1.34765260408903 0  -1.805986371542 -0.4354886593581866 0  -1.354085155245682 0.1006573379136477 0  1.087205909726446 -2.246869176833609 0  0.6025112131415814 -2.369833104490819 0  0.8751469092325987 1.345288259837208 0  -1.671213912845529 -1.820257905154462 0  -2.445569149659228 0.3483036283041118 0  0.2895673939733072 1.6325328584817 0  -1.28877124108577 0.7479181770553852 0  -0.8244813153029746 -2.332701724800622 0  -2.303181795914825 -0.8670879137013885 0  0.1817424993521122 -1.016621208209705 0  -0.7835697282265389 -1.82980588263923 0  -0.1692523623739954 -2.020866447612484 0  -1.842668762148325 0.6143653671420132 0  1.680628090016439 -1.840927031459981 0  -1.980829190478429 -1.512061491447805 0  1.65637603364922 -0.0005890783493638085 0  -1.686821898903126 -
[...]
<PointData  Scalars="f_5211-1"> 
<DataArray  type="Float64"  Name="f_5211-1"  format="ascii">3.5561036191477474e-01  3.4812560886023453e-01  3.5279738965805280e-01  3.4998058757944039e-01  3.3473717431617261e-01  3.4052629772278459e-01  3.4490891279387981e-01  3.6650206984736655e-01  4.0449386217778194e-01  4.2999587266649375e-01  4.3458395303400527e-01  4.4233281240987904e-01  4.3134789006948154e-01  4.1385176764949066e-01  4.0524135846178033e-01  2.6215939302025909e-01  3.5527156734484622e-01  4.2879558980217958e-01  4.3168531065004645e-01  4.3144814449205854e-01  4.3038275293122147e-01  4.3814850719157944e-01  4.3908835202401580e-01  3.9381468697283595e-01  3.5991379433859777e-01  3.5177528465116131e-01  3.4292465963583990e-01  3.4136447809282872e-01  3.5469127196858341e-01  3.4662269905643406e-01  3.4829115541547662e-01  3.5705471610681316e-01  3.5447028973546163e-01  3.4328810155089673e-01  3.5583931548847136e-01  3.5500168957673273e-01  3.6655083843408776e-01  3.5998427000046862e-01  3.6222124179199577e-01  3.6526955071619799e-01  3.6223829166536098e-01  3.7293046028081772e-01  3.6374493089257426e-01  3.7324932041021380e-01  3.6593632549042132e-01  3.6999933104265920e-01  3.7073787669960395e-01  3.7079489745394040e-01  3.6200647861609359e-01  3.6905263759326878e-01  3.6812043436889474e-01  3.6848974761821501e-01  3.6410342705619930e-01  3.5987894769684786e-01  3.6711784884752346e-01  3.5246033677491201e-01  3.5497637437715368e-01  3.5077666419548681e-01  -7.4162791469048186e-03  -1.0639979497929265e-02  -1.0320120611101137e-02  -1.0624478259921036e-02  -2.1352661235859015e-02  -6.5789526058108692e-03  -1.7157201517090225e-02  -9.2082457198454398e-02  -1.3319700469940340e-02  -5.5795100303700591e-03  -6.4352567706089069e-03  -6.1552343340445896e-03  -2.2588625185888018e-02  -2.8261938113471080e-02  -6.6308604683354855e-03  -7.1069645858969329e-03  -8.1888912423526555e-02  -9.1785802149028633e-03  -2.7911076272824800e-03  -3.4785124933650658e-03  -7.3987474533297719e-03  -6.9737727826058539e-03  -9.4706857341721011e-03  -8.0466898341004303e-03  -8.6374067170804977e-03  -7.3817847552093505e-03  -1.7812641808162440e-02  -8.2374513893774357e-02  -7.3091648834077427e-02  -6.6842751326781816e-02  -8.2541267919558695e-03  -9.0411545842531520e-03  -6.8448089838263190e-03  -1.5915987965029151e-03  -3.5506351362188022e-03  -2.1106099388063364e-04  -2.6510276504935367e-02  -1.4127537250054825e-02  -9.7854098381795762e-03  -5.4805842989393786e-03  -9.2452113592279977e-03  -1.3837718123612961e-02  -1.7893737646783259e-02  -2.0043379483470746e-02  -1.1915450145957239e-02  -1.7019353402139649e-02  -8.4603557362138732e-02  -1.4725633129950946e-02  -1.4302036273292663e-02  -9.5754810786374642e-02  -1.4598167031391390e-02  -9.1761672208248157e-03  -3.4500648792439997e-03  -3.5844392104437267e-03  -1.9103564652806634e-03  -6.6622282527090933e-03  -7.7757655634415626e-02  -8.3177953492668724e-02  -4.4868355469738740e-03  -8.9537769016369046e-04  -1.7784040849145733e-03  -1.1323083798889450e-03  -1.1806739019138784e-02  3.7537437782808637e-03  -4.8299288313886544e-04  -6.9268458334251465e-02  4.2544659025005307e-03  -2.7422381894950162e-03  -5.1154876031558601e-04  1.2098125944004969e-02  6.1924897194851648e-03  -1.5765944300463549e-04  -1.3061205871058932e-03  3.5722690243174227e-04  -7.0598265757718298e-02  -2.1509806707921311e-02  -8.2765511845170909e-03  -1.2176317384486107e-02  -7.7258382279584939e-02  -9.1081579406665902e-03  -2.0735091263163231e-03  -1.6717549476157067e-02  -2.4926994252819180e-02  -1.5868005457471194e-02  -1.7104757181278477e-02  -1.3361395606811679e-02  -1.1974970919681542e-02  4.8211896629228361e-02  4.8301462049869626e-02  4.8923386637307088e-02  7.9794563447969868e-01  4.2266455398244314e-02  4.2474663510671203e-02  4.1149362175063132e-02  4.1060137476197689e-02  4.6194333069122649e-02  4.6318518271934998e-02  5.3752560168937556e-02  5.3312856014053521e-02  5.8763884629131007e-02  5.8416886843180790e-02  5.0149113528326704e-02  5.0159421098942926e-02  4.5642191298516335e-02  4.5785383472859757e-02  3.9592513047913440e-02  2.9372719600504658e-02  3.7685200633363343e-02  3.9877853234762617e-02  4.7022820695680978e-02  4.6792699166757504e-02  4.9358945064298471e-02  4.8287500672630643e-02  4.2004861635822288e-02  4.8206885991902593e-02  4.1919738415930434e-02  3.6267474929057492e-02  3.6375239912243687e-02  4.1203074226649150e-02  7.8345799689298856e-01  7.8555288171027959e-01  7.7798519855732484e-01  7.7841007765609427e-01  4.8746670814924190e-02  4.8355949757859194e-02  4.1596999577772908e-02  4.0612533867940795e-02  5.5162830385352121e-02  5.5379632431339726e-02  3.8504870561746347e-02  3.7764949629285949e-02  3.8509918479720046e-02  5.7849034169345129e-02  4.7547503494744230e-02  4.8116808972864147e-02  5.5964797852238235e-02  4.2933626807021792e-02  4.2971132117380538e-02  4.7674809820308049e-02  5.6486823599312452e-02  5.8261221911427186e-02  4.7757298445075619e-02  4.5884667907474239e-02  3.5063927078863140e-02  4.8557604466759351e-02  4.5313395421757642e-02  7.7694207501311030e-01  5.4043439099042342e-02  8.1412603642008752e-01  4.8016685810372634e-02  8.1456300333543008e-01  4.8122027782513434e-02  4.9966907482183229e-02  4.9500462478214047e-02  5.5281949125241418e-02  3.8544809085813155e-02  4.7104126088765144e-02  5.5778403665291715e-02  4.0567304709558438e-02  3.0923738019014081e-02  5.0134184158307553e-02  4.3270268447005857e-02  5.2719331346115714e-02  4.0622001131347750e-02  3.6396791005699085e-02  4.6371913502873063e-02  4.7588513764810617e-02  4.8401539707167207e-02  4.3742519651906842e-02  3.7930710109913966e-02  4.9896313758567977e-02  4.1444049526941640e-02  4.6675805608091335e-02  3.7681699118236531e-02  1.7569855342808926e-02  4.9846172935301164e-02  5.0503318113003161e-02  4.3574331785161825e-02  4.4425973174893010e-02  4.0839952314350628e-02  3.9039533218377019e-02  4.4109400908824647e-02  4.0900112133542096e-02  4.0538863523170064e-02  4.0797384728815812e-02  4.9973893245211773e-02  2.7003935999444582e-02  4.2760290866357152e-02  5.4580396074769284e-02  3.5493146336330654e-02  3.4567314451918588e-02  4.5594374754876210e-02  3.7774992601612753e-02  7.6462868907519066e-01  4.7492263856039982e-02  4.8444343468937556e-02  5.0947477340957371e-02  4.4350065683390373e-02  5.6710180682734125e-02  4.8282022675047609e-02  3.5747665446212530e-02  5.3452067210789905e-02  4.1100821484822060e-02  5.3796329633389199e-02  4.8953174655140527e-02  4.1223856806027512e-02  4.0611492477791167e-02  4.1619156338062084e-03  4.7130789056495898e-02  4.6655095321776939e-02  4.8967881809734062e-02  5.4287150657417585e-02  4.4326931858932016e-02  4.8937707532288224e-02  4.5072427740517299e-02  4.3526415970263840e-02  4.4919699688657874e-02  3.8760609219604107e-02  4.3190137377730878e-02  4.1598714647872348e-02  7.7096828380003035e-01  3.6229776853636826e-02  7.6680046053894446e-01  4.2119874793984935e-02  5.6077297250156574e-02  7.6793104763003150e-01  8.5837259545547695e-01  8.5616080033727127e-01  7.7435587497003144e-01  3.9157279648675165e-02  3.6445606363435017e-02  3.9295468839074595e-02  3.6419280656040942e-02  4.7973309866683793e-02  4.1396404620317205e-02  4.9977378622772524e-02  4.3867083434180137e-02  4.7923627131592997e-02  3.8644808247275210e-02  8.0038483638726399e-01  7.9997452410084535e-01  5.9379379893480036e-02  4.4352463532930354e-02  4.0566229381088677e-02  7.8850656158530052e-01  5.1434322415321941e-02  4.2295909155328472e-02  4.4886358357992824e-02  4.5629623763743743e-02  5.3535718456698418e-02  5.5535624261246329e-02  5.7146595604070177e-02  4.4390251041818422e-02  5.0595476160019096e-02  4.5182427075665992e-02  4.3589645357361498e-02  4.6252235804275357e-02  4.4161012790572600e-02  3.4221227894126856e-02  4.2617718350395177e-02  3.6658147155852014e-02  5.9493409645752879e-02  4.9252348325110412e-02  3.5491023381269339e-02  5.2031995227290365e-02  5.0404478324564926e-02  6.0132897367246453e-02  5.0983344789095657e-02  4.2939646553154215e-02  4.1638608038999089e-02  4.4008662042740308e-02  5.7783065517061617e-02  5.0280378084704917e-02  3.7374910510774163e-02  5.7662985050023319e-02  7.5281228491340735e-01  4.8596608288048827e-02  3.6313861452850899e-02  6.4703452145734461e-02  4.3957645288137524e-02  4.1993792282577061e-02  7.5072126301615716e-01  4.8051611865175876e-02  4.0115402416853151e-02  7.8888772545956032e-01  4.6667157591375588e-02  7.4074387923411111e-01  7.8886611011215890e-01  8.1339070339411434e-01  3.4279517227692784e-02  5.1709197838655518e-02  5.8443467711305097e-02  6.5808963399312345e-02  4.7874905931388712e-02  5.4598414429476674e-02  7.8289290893824370e-01  4.9425411317634303e-02  5.1722592291156923e-02  4.6493558828426408e-02  5.3736712616945417e-02  5.9260506528382759e-02  3.6376367652579511e-02  3.4163796239961429e-02  5.7440774184737607e-02  4.2366154387713975e-02  5.4530094589059427e-02  4.3847065430089815e-02  4.3612899636796820e-02  4.0581193242895310e-02  8.0018398723358342e-01  5.7115676911632912e-02  7.3979069143904164e-01  4.9102350548113530e-02  4.3010544755709083e-02  3.3459960480405858e-02  3.9130252450074218e-02  4.5711585626428776e-02  7.9175264399394665e-02  4.9792005050970298e-02  3.9505646976612178e-02  5.9075002266281415e-02  5.7546238082412438e-02  4.2925799922108494e-02  4.3919635812061888e-02  4.3195838778028205e-02  3.9256505424030932e-02  4.0620143190647523e-02  8.1265147426854745e-01  6.0817385801204209e-02  7.5640624853858163e-01  4.6997832407270693e-02  3.3243860852458847e-02  4.9935737493360922e-02  4.0189471399031979e-02  4.2166559865589176e-02  5.4459877113754919e-02  4.6621267595641155e-02  3.3659740273735958e-02  4.5858044739722187e-02  3.8804196454294393e-02  4.1665978360727073e-02  3.9281777808839929e-02  4.8170112929490923e-02  8.1910890180060625e-01  4.0035270252526220e-02  4.9318131635292320e-02  3.9452259648492874e-02  7.6576566303225554e-02  4.9198698668333554e-02  8.4189626624017799e-02  6.9816573837576001e-02  4.7416650473172756e-02  7.5408887717051531e-01  5.0937965855321996e-02  3.8649242477650045e-02  5.5058843150486786e-02  5.8153076719843419e-02  4.4701474243488359e-02  5.0684909386466692e-02  4.6201852195292263e-02  4.0785951704539740e-02  8.3042898259316578e-01  4.0520096687944290e-02  4.5807048491248670e-02  5.1168888267489061e-02  4.9013824715897769e-02  3.7535746200106059e-02  4.7114609586158235e-02  4.5710726719238398e-02  4.4323500556335792e-02  3.9421957077211835e-02  4.1739826448870719e-02  4.8891354851589706e-02  4.2621104266815077e-02  5.0162594569446578e-02  3.3663640373943975e-02  4.2479661892157121e-02  4.0900132018527283e-02  7.3945553077044590e-01  4.2670099052267214e-02  4.3712964186911972e-02  7.7581262203644730e-01  4.3060134940309844e-02  5.0170069842734019e-02  4.8142135601412860e-02  4.3979889236083376e-02  3.7739337856306565e-02  7.9611390892918221e-01  5.1402975404778763e-02  5.1088832344858427e-02  1.5954878505393916e-02  4.3207518384094298e-02  4.8627648532086211e-02  4.0842999181190699e-02  7.9545736100085074e-01  5.2553478982016011e-02  3.1929549771971932e-02  4.6456054616741717e-02  4.8234089537977552e-02  7.7108810295718713e-02  9.4462855359341430e-02  4.0045427009297058e-02  5.8549206780788926e-02  7.7968754508003213e-01  4.9622633507555872e-02  4.8401559438199127e-02  5.2288170223067386e-02  5.0553109777745138e-02  4.0750096883287797e-02  4.2255083675627393e-02  4.8670265130018549e-02  3.9983404987934845e-02  5.0373769421819536e-02  4.2362454070419359e-02  3.4077726948016501e-02  4.3041700239014859e-02  3.4634228795685833e-02  7.6902840261120464e-01  3.9290482049060542e-02  5.0475603322134056e-02  4.5700555358466941e-02  7.6096356170422458e-02  4.0094278881044908e-02  5.2907537143305330e-02  3.0882720843068780e-02  3.8426897073224470e-02  5.0126600512812911e-02  4.9535424574694342e-02  3.5180958117439182e-02  7.8149503415082100e-01  4.2745282103925371e-02  7.3170760591042480e-02  5.0535305426599515e-02  4.8515511053640520e-02  4.0819790500153656e-02  4.1336395039376063e-02  3.9052553455614772e-02  3.9753347698875716e-02  5.2919569839916122e-02  3.8166045357430949e-02  3.9811233882099083e-02  3.2273414432729033e-02  3.7777536350164856e-02  3.6233600649831388e-02  5.0503929761941006e-02  4.9416857497454177e-02  4.7386613594015477e-02  4.0841122512303929e-02  4.0775905251646274e-02  3.9413209430237878e-02  4.1003062799885394e-02  4.7371373179421680e-02  3.6043990766834871e-02  5.6806185172204822e-02  4.8685886701450104e-02  7.8243380919803415e-02  8.5123995088028193e-01  3.5583235800730993e-02  4.9428567458890571e-02  4.1036591625163675e-02  4.7182338498250619e-02  3.4094446783645205e-02  4.5079342132946183e-02  4.1355719700779413e-02  3.8250433221360187e-02  3.8062134909739344e-02  4.6238659415789807e-02  5.7698826386314454e-02  4.1494943132844055e-02  6.0735944121909054e-03  7.9058852718254724e-01  4.0654343747541614e-02  4.1569764965420641e-02  7.8913992919786013e-02  5.0335058279677075e-02  5.5560427648457110e-02  1.0028968706390434e-01  4.3986734442916391e-02  1.2517366572381661e-01  3.8523765404803872e-02  3.8656212159636452e-02  4.0845096775054865e-02  3.4940229890183895e-02  4.7897210371748197e-02  9.7122704136910890e-02  5.6304993251011425e-02  5.0275844747138698e-02  3.1080408374797024e-02  3.9694246987755054e-02  3.8880452371837924e-02  4.9507378152772362e-02  4.9980410205343828e-02  4.0598279095343894e-02  5.9026222222023514e-02  7.1101257670990381e-01  7.1788687739285828e-01  4.5844679541283108e-02  1.1417454423170782e-01  7.9519634421239549e-01  4.8955936436506982e-02  4.2115569985203792e-02  5.7018219384616625e-02  3.1962682673202007e-02  3.5487128242404534e-02  5.4828714972381877e-02  3.0784179133961018e-02  3.6260663962437996e-02  4.8048039931207827e-02  8.5050023617012777e-02  1.9814020564405392e-02  8.8256440936970368e-02  4.0710111905168961e-02  5.0304606946281076e-02  5.0171632758755080e-02  4.9542597078451232e-02  3.9880171670434048e-02  4.6394866468669312e-02  9.3782728665550860e-02  4.2799263966928652e-02  4.4775980168185819e-02  4.2957069017464211e-02  4.1744201084558528e-02  4.6114076264792296e-02  5.3794517604267414e-02  5.1494365050648958e-02  4.3784236848297249e-02  4.1177365380728678e-02  3.4805074991355170e-02  4.8020581279599829e-02  3.2299498698722111e-02  4.9013396453439315e-02  4.5718273843544578e-02  -1.1421059726610635e-03  7.1690070511865700e-01  7.2285996921928453e-01  4.9491821775834929e-02  3.0693682338408024e-02  4.6171692952109898e-02  5.3383763012893673e-02  4.2222848832033678e-02  5.7429207100765593e-02  4.5387705450721509e-02  6.8762799826135712e-01  5.9212635454019072e-02  5.5865991928989403e-02  4.1237512116038995e-02  7.1182969939523499e-01  3.9892691581697684e-02  4.4564042942000857e-02  4.2909996709021056e-02  4.7585306639492037e-02  5.4947982739239093e-02  5.5706601241323615e-02  1.1886447306447494e-01  3.2229245412642653e-02  4.8136148015864591e-02  4.0515070658208523e-02  3.9959101420226448e-02  3.6948132826481468e-02  7.7649904053220986e-01  5.5427764723469823e-02  4.8371999665673869e-02  4.3207858563939994e-02  4.3028958944528163e-02  1.1343162157557639e-01  3.4570638550233582e-02  7.8600047015640473e-01  5.7048970414645135e-02  3.7730711780896889e-02  3.9911891692624234e-02  4.0151852401876430e-02  4.7309805185772942e-02  4.4959925534594367e-02  4.9375204968461262e-02  4.5185248813419149e-02  3.9753922316860847e-02  3.9270036724861047e-02  4.3420296114957381e-02  4.6543479615464275e-02  4.6587047731911524e-02  4.1748357318408889e-02  4.9520910800646280e-02  4.4528654896601468e-02  4.8448190870662412e-02  8.5850377814479650e-01  6.8517038598261781e-01  8.4957302175291349e-01  5.2850391892466181e-02  1.1759292004662626e-01  3.6999366801713798e-02  5.8932127554158116e-02  3.2340944400060107e-02  6.9101063093254733e-01  4.7602900148725147e-02  3.8328432770005208e-02  3.7223812670566236e-02  4.1396168482842020e-02  4.4463388060577147e-02  3.1132552136681604e-02  4.4538621735914823e-02  3.9451603387846014e-02  4.8409541557479958e-02  4.6701337260631935e-02  4.9434225492577873e-02  5.0110731013436091e-02  3.7489951795984217e-02  5.5660113208145796e-02  4.0412969357875264e-02  7.0568854353076260e-01  7.7496436915470268e-01  3.0856311364478341e-02  3.8085618501135135e-02  3.8090787548741574e-02  7.7726227659645564e-01  7.8648618943968143e-02  4.8505510355768541e-02  4.4312297553359511e-02  3.3764255621413643e-02  3.9953919775522408e-02  4.9208853251238326e-02  3.9823074269329684e-02  8.0700660052498152e-01  6.7539841267352174e-01  4.7184377478812801e-02  5.1681809753097795e-02  3.1064642025845829e-02  4.3405293164159177e-02  3.7913395546453711e-02  8.2687365203146168e-01  3.8756117405488434e-02  3.8375773265603659e-02  4.5880317477837801e-02  8.5026464864837215e-01  5.4373258515492698e-02  8.4410269691656592e-01  4.1920100882699859e-02  4.9050709409607013e-02  4.7504293583764803e-02  4.8649905315180042e-02  7.6992965676050673e-01  3.7936191768849527e-02  4.6007548370114990e-02  3.9044790140242897e-02  4.5844242881800099e-02  4.6413566307135612e-02  5.7460589348778859e-02  5.8761643398786659e-02  7.7272510936458372e-01  4.4066726495668264e-02  4.0878491354147291e-02  7.7104555775003869e-01  5.6724495511775060e-02  5.1335652735544739e-02  5.3665950478983322e-02  4.4036571791071136e-02  5.6851153818999030e-02  4.0786919783564954e-02  4.0518912362347344e-02  3.4159680939113472e-02  4.7539329511804694e-02  5.0307611533347889e-02  7.8687116874119234e-01  3.3306391449671624e-02  4.1181776898448180e-02  4.6968262153222452e-02  8.3676628570598310e-01  3.7269556610013514e-02  4.6061948105005704e-02  4.6848511054843875e-02  4.9859808169427297e-02  5.5706974087286400e-02  4.4233724860486705e-02  3.7526802031622390e-02  4.9920824177512306e-02  4.0138151333532331e-02  4.9423548242626854e-02  8.3420657351553662e-01  5.0328040952198630e-02  7.9176820555278282e-01  3.1160256529822149e-02  4.6482723066001118e-02  4.9253313529498695e-02  4.4179253852087104e-02  3.2880140704534877e-02  4.8785783748417910e-02  5.4923829559022037e-02  1.1465156862828868e-01  4.8444034512804789e-02  4.0577381007840377e-02  4.8442647599830059e-02  3.3599244552805566e-02  4.9101307830071189e-02  3.8291749537039552e-02  4.2910784706439387e-02  3.2465842022395858e-02  5.7257870507324227e-02  5.4552777793467122e-02  5.3446352202410605e-02  5.5783187058912442e-02  5.5312308331257734e-02  3.9809490514518452e-02  4.5469931991585368e-02  7.9668116758796259e-01  7.9209215775019637e-01  4.5479308901372223e-02  3.9726821335163878e-02  4.0660859680701968e-02  1.0732609273062071e-01  4.3496413657196323e-02  4.4452077573791472e-02  3.7090991259846030e-02  4.7243409740353799e-02  3.7101628089127779e-02  4.0164371325869842e-02  4.3622198463958463e-02  3.8543610399141510e-02  3.7385912886210439e-02  4.7074411147755617e-02  4.0074347102084726e-02  4.1470269556338500e-02  3.5328493547555087e-02  5.6466875184467816e-02  4.0881710879009332e-02  5.9539304129116663e-02  5.4278306322677244e-02  5.6310622924412475e-02  8.3765820977574332e-02  3.9417963893072422e-02  7.9328647629968940e-01  7.9855708133113656e-01  7.9634937578704146e-01  8.0413179367975685e-01  4.2752522206415136e-02  4.4526087301791292e-02  4.1195990941216558e-02  5.7845572962054628e-02  3.7809378085863404e-02  7.8256260523507504e-01  4.3239119992719108e-02  4.8149610868371662e-02  4.2034279487017191e-02  4.4858267240808457e-02  4.2715128294832067e-02  4.1748986116024234e-02  6.7006008848742116e-01  4.0314822193883729e-02  3.9914802818722554e-02  4.5171826199338010e-02  4.8266560380334216e-02  4.2125424641245787e-02  7.7873284826553746e-01  3.6887361846782846e-02  3.9598731845954561e-02  3.6706817798046881e-02  4.8575042693688397e-02  5.1164241159128890e-02  2.9609224563389592e-02  4.9653304553142347e-02  5.0553011578949272e-02  4.8632374239789819e-02  4.0628080913716308e-02  3.3908519925596917e-02  9.5057975753287907e-02  2.7866368573501960e-02  3.4889297673020493e-02  4.1936518945484287e-02  4.7759633307086609e-02  4.7206148798182732e-02  