<?xml version="1.0"?>
<VTKFile type="UnstructuredGrid"  version="0.1"  >
<UnstructuredGrid>
<Piece  NumberOfPoints="1537" NumberOfCells="2944">
<Points>
<DataArray  type="Float64"  NumberOfComponents="3"  format="ascii">-0.9908175519627115 0.3426329691568895 0  -0.9882594582823708 0.2332170477664931 0  -0.973231813264697 0.1237666352642504 0  -0.9457505752081801 0.01663786749820223 0  -0.906629999514031 -0.0862661536555005 0  -0.8561017339947704 -0.1845318136146056 0  -0.7950411243373796 -0.2762225501511818 0  -0.7241690891297722 -0.3605595259131458 0  -0.6460585290123214 -0.4351561325155678 0  -0.5635837700073441 -0.4985605360020945 0  -0.4780742805180294 -0.5513387892856286 0  -0.3885082196617217 -0.5949547577114296 0  -0.2958959895293806 -0.6292263993473943 0  -0.2013898148694428 -0.6537838535631257 0  -0.1047227034461052 -0.6689206163199516 0  -0.01158586222233525 -0.6741225145812102 0  0.07736511567852458 -0.67053190098341 0  0.1731047457762313 -0.6571462211716554 0  0.2666155299524793 -0.6344472888228203 0  0.3593174390352722 -0.6020424784681484 0  0.4485105791222738 -0.5606947072451748 0  0.534298989737105 -0.5100663249194934 0  0.6159978683007213 -0.45008334509911 0  0.6941495146007618 -0.379093177278067 0  0.7666046184696904 -0.297409503937983 0  0.830072215188041 -0.2076020205584783 0  0.8832845640363524 -0.1113104097183678 0  0.9255037739750653 -0.009197757071883635 0  0.9560103202352039 0.09656226776896432 0  0.9744027063047208 0.205182236171594 0  0.9803435099023027 0.3146810107619034 0  0.9739741681065486 0.4239711482064436 0  0.9552977768436449 0.5317811247536629 0  0.9247207002739258 0.636599635789746 0  0.8824837906484601 0.7372402421918925 0  0.8297901120102174 0.8322654717157517 0  0.76674558149747 0.9208990772293885 0  0.6942988229972331 1.001757662834729 0  0.6130019667967488 1.074532374533727 0  0.5239156816586974 1.13785942746476 0  0.4291089614390773 1.190507123647517 0  0.3284509267857864 1.232789605980664 0  0.2241579806960702 1.263568667056554 0  0.1172637742223146 1.282849688980389 0  0.008595049537086449 1.290349256378287 0  -0.1008853779901978 1.285786139966625 0  -0.2086825379350099 1.269253815081878 0  -0.3139988252692583 1.240923878887297 0  -0.414797510882092 1.201476338988764 0  -0.5111662575126447 1.151243062108472 0  -0.6016465126917773 1.090455485304572 0  -0.6845838503561125 1.020372619446428 0  -0.7593462153369717 0.9417081629786603 0  -0.8252521257039793 0.8546414616326168 0  -0.8810791487387026 0.7608845762070787 0  -0.925824213975975 0.6619259607111834 0  -0.9595179167170501 0.5581133484295012 0  -0.9811794020962938 0.4511750360433704 0  -2.804441860112608 0.1013089784270922 0  -2.804440380233904 -0.1013128143922629 0  -2.78982037512589 -0.3034085315585017 0  -2.760646401287995 -0.5039587957950573 0  -2.717149223833289 -0.7015678254929988 0  -2.65926703754822 -0.8963258131231755 0  -2.587888890240851 -1.08532052470911 0  -2.502668802599372 -1.26948639994232 0  -2.404430582954672 -1.447002079210657 0  -2.293928315330017 -1.616490226684007 0  -2.171260500242562 -1.77785688143484 0  -2.037512570852264 -1.929676377375467 0  -1.892759511978218 -2.071827182246979 0  -1.738321379267956 -2.203007951455461 0  -1.574586359749985 -2.322880343687029 0  -1.403394387971301 -2.430140048577937 0  -1.224097492111775 -2.525181169327078 0  -1.0384628015723 -2.607048495216962 0  -0.8479173805909618 -2.675104049075704 0  -0.6526477682021353 -2.729325366978598 0  -0.4539737247531765 -2.769305365076566 0  -0.2532476083559753 -2.794812020552873 0  -0.05036384412834035 -2.805808280419742 0  0.1516308662544611 -2.802160655050891 0  0.3540270527895456 -2.783839301988837 0  0.553386076655582 -2.751156722771744 0  0.7507444455303532 -2.703958703427543 0  0.9438997450029276 -2.642727398593602 0  1.132132491479948 -2.567730640912936 0  1.314467473505081 -2.479344077851791 0  1.490211881956593 -2.377890929605776 0  1.657422079574976 -2.26451941316854 0  1.816931142838443 -2.138660173598239 0  1.966312727186376 -2.002190148585064 0  2.105707226200361 -1.855032693669072 0  2.233891256462329 -1.698482816080202 0  2.350751427826481 -1.532635044777815 0  2.455354600996905 -1.358799611374878 0  2.546886960884665 -1.178350714635649 0  2.625290124783336 -0.9914676331635565 0  2.689985623351177 -0.7994585966065587 0  2.74066659615175 -0.6032314743060999 0  2.777000839624209 -0.4041873294815023 0  2.798963956329784 -0.2022425233805851 0  2.806267225416118 -1.340337348807073e-06 0  2.798964423934941 0.2022417379920832 0  2.777012409808904 0.4039274742883452 0  2.740585877362937 0.6035566536061486 0  2.690063120370481 0.7991574604926746 0  2.625253334215365 0.9914570262780693 0  2.546786040813982 1.178551090468103 0  2.455252124300735 1.35900032978834 0  2.350772655914602 1.532654609453441 0  2.234055175676639 1.698279788051236 0  2.105664206264833 1.855081762669199 0  1.966515790772386 2.00198026127175 0  1.816721984668883 2.138803750822318 0  1.657647024169275 2.264323060880752 0  1.489697900702303 2.378213651825227 0  1.314740848910906 2.479225065269009 0  1.131869492371111 2.567873155782906 0  0.9441969909555739 2.64264932868863 0  0.7507469497184232 2.703958657347253 0  0.553386954167842 2.751158017634628 0  0.3540266290849156 2.783840339629113 0  0.1519266860704321 2.802121150321944 0  -0.05096700507496776 2.805799371520674 0  -0.252695616481363 2.794860839362708 0  -0.454255033158974 2.769253422991426 0  -0.6526133040465963 2.729333169310443 0  -0.8479228650338494 2.675105073077941 0  -1.038468043353654 2.607047533579234 0  -1.224376779540434 2.525074883753192 0  -1.402870403204818 2.430444073756469 0  -1.574819349618333 2.322694464846169 0  -1.73832359755983 2.203006593732605 0  -1.892992393453933 2.071636650359538 0  -2.037124373071999 1.930081660059903 0  -2.171257088651559 1.777808812067519 0  -2.294047529562612 1.616309362775934 0  -2.404572382481596 1.44678107670343 0  -2.50257855388914 1.269726193325652 0  -2.587758483359625 1.085591698912766 0  -2.65945693189154 0.8957560585003521 0  -2.717009301487909 0.7021051878257955 0  -2.76069096733625 0.5036735701217948 0  -2.78981416284811 0.3034432025779202 0  0.08033035108319553 -1.738609846472066 0  -0.9318993949903563 -1.500520804972048 0  1.084329615899984 -1.400291206570354 0  -0.007214241945598206 0.3155417120469801 0  -1.654047851706073 -0.7725475800952419 0  1.70528577391134 -0.659162494240778 0  -1.894290052375741 0.1279647549948382 0  1.883732956296263 0.2519716928467716 0  -1.722552617979872 0.9468841635655457 0  1.661833734510061 1.052997006655418 0  -1.198525949854664 1.625605963260197 0  1.139389609132052 1.667982537796104 0  -0.4557113064079606 1.992909272359989 0  0.3339247045277356 2.021071607015273 0  -0.5305896302131886 -2.052013292095177 0  0.7918796486024208 -1.994337352443687 0  -1.598509131068335 -1.431230287514311 0  1.702917222128209 -1.396442154337554 0  -2.172237228059608 -0.4822969853868748 0  -0.2646635528114862 -1.257145124247152 0  0.4598739341721779 -1.249311516425942 0  2.182295307771545 -0.2740613563072564 0  -1.017087682464458 -0.9133691560848948 0  1.117651647750709 -0.8089301050201974 0  0.2047575822027104 -2.269811426909933 0  -1.061447194850711 -2.02070545647536 0  2.125055322242045 0.7555983801768786 0  1.30354152021868 -1.880683662899147 0  -2.173999834313587 0.6393481913005754 0  1.403288751234604 -0.2271958393469199 0  -1.454736173168865 -0.2462343274908198 0  -2.008676331259559 -1.137969228763301 0  0.4831672413477335 0.4025622968953134 0  -0.5012889388531477 0.3616470396563737 0  0.009627949829677736 -0.1656376786563552 0  0.1547023676997954 0.777305619939769 0  -1.718705349242025 1.490189058452126 0  1.654840491227106 1.581658032460034 0  2.059618946413829 -1.032505914806911 0  -1.501357043404382 0.4662233271945447 0  0.8510322768789539 2.12542041960485 0  -0.9619841517919878 2.086141452660239 0  -2.338586317623027 -0.04181355966037516 0  1.44104113075303 0.4142662515517669 0  2.340950844778805 0.1590324975875198 0  -0.07179677415946051 2.311995144203172 0  1.187266187401383 1.173745122861331 0  -1.252361703099217 1.120416013166877 0  0.6464075227357988 1.634231464863986 0  2.072543190648423 1.178735385778697 0  -2.134888622416365 1.062258287715235 0  -0.6705192787998764 -1.157483875178691 0  -0.6725412015105304 1.582266398455593 0  -0.05169591367782075 1.753394535887128 0  -0.3264427921632239 -1.675972502522652 0  1.493628367151554 -1.023652614600179 0  -1.13384901795641 -0.5205502046316648 0  0.715244187454066 -1.582862882865397 0  1.297812159749829 0.7864788864788008 0  -0.2986405916539042 0.7642962703459202 0  0.703432946513083 -0.9172375764025729 0  0.4154228831199748 -0.02809331159074513 0  -1.293197293117582 -1.692808152684956 0  -0.3992511158081511 -0.0608868628641306 0  -0.2214196857928613 -2.360627867846442 0  -1.536212081711038 1.853906978500208 0  1.448567240578307 1.925968800879037 0  -0.654994915481673 2.335473971399822 0  2.28821485604623 -0.6796536535818936 0  -1.237339836964445 -1.249329519636114 0  0.3008201913228372 2.406663982693011 0  1.791428732035214 -0.2901509659897614 0  0.09641402597826035 -1.341050391115514 0  0.442964176036675 -1.839023345881241 0  1.740597818928077 0.6739334797405131 0  -0.9546854442527406 1.340299347859261 0  -1.792430113801866 -0.4262756927030781 0  -1.353359108373278 0.1122743413241564 0  1.074199501028591 -2.218288634636504 0  0.5957096764006682 -2.340155201986989 0  0.8635091505968908 1.338515689303493 0  -1.650451190343796 -1.797133024630178 0  -2.41472447450062 0.3470301803581565 0  0.2849184729710888 1.61868069539098 0  -1.278952034214925 0.7524278585272134 0  -0.8147256166265597 -2.303282808658869 0  -2.274855154838682 -0.8552726089976136 0  0.1937256267121376 -1.014615424201755 0  -0.7781032967260243 -1.809859360847999 0  -0.1681758225995295 -2.000278092460795 0  -1.8233231456815 0.6156522298382786 0  1.659692828816621 -1.817463000154834 0  -1.956066320283205 -1.492856465636047 0  1.647951947794423 0.007619865834643188 0  -1.670601396543946 -1.105426686
[...]
<PointData  Scalars="f_5123-1"> 
<DataArray  type="Float64"  Name="f_5123-1"  format="ascii">3.5634139199866721e-01  3.4829310559733628e-01  3.5176644609268087e-01  3.5044364404140216e-01  3.3693750461095018e-01  3.4182723426316036e-01  3.4184451484428569e-01  3.5610997222084922e-01  3.8790648724453991e-01  4.1920129143407786e-01  4.3646144444220425e-01  4.4184406015066835e-01  4.3291086692253405e-01  4.1841352599427445e-01  4.0764362931238002e-01  2.7473680214710255e-01  3.6142164659736381e-01  4.2961626933377201e-01  4.3639184776392570e-01  4.3304126250168284e-01  4.3158456161140779e-01  4.3810065209402987e-01  4.2548833749379295e-01  3.7548074013789418e-01  3.5238715335240178e-01  3.5176766179414098e-01  3.4257719498479366e-01  3.4079334095634073e-01  3.5513989437099586e-01  3.4743098003332429e-01  3.4849483278353455e-01  3.5665878672004131e-01  3.5464106809955770e-01  3.4403452759195868e-01  3.5537430875880932e-01  3.5464539663344224e-01  3.6694215566822197e-01  3.6020200869436647e-01  3.6117259928588530e-01  3.6590354019107529e-01  3.6227586447352683e-01  3.7201525855005335e-01  3.6428208347077418e-01  3.7344339807707211e-01  3.6497326710843730e-01  3.6970455766747501e-01  3.7077867375377016e-01  3.7099900722910539e-01  3.6250090139445235e-01  3.6817204508309320e-01  3.6753178373555390e-01  3.6951302840003769e-01  3.6383844514051356e-01  3.5892992664013390e-01  3.6778508215134853e-01  3.5299881140874512e-01  3.5480756502410776e-01  3.5111470951799534e-01  -7.2234073599736952e-03  -1.0476150920907654e-02  -1.0194080489665573e-02  -1.0560120353291373e-02  -2.1334639770883294e-02  -6.7569685092210242e-03  -1.7321478217826827e-02  -9.3295508838330821e-02  -1.3450514940550030e-02  -5.5897455329948558e-03  -6.4062111591144978e-03  -6.2860278548640385e-03  -2.3077343491008744e-02  -2.8629154560397104e-02  -6.7657370618710733e-03  -7.2053301264524217e-03  -8.2874437165095627e-02  -9.1587807941595923e-03  -2.6889946481808156e-03  -3.3134988830419553e-03  -7.2507181974395107e-03  -7.0107448706231146e-03  -9.5653279210242900e-03  -8.0695464857752242e-03  -8.6613317916728709e-03  -7.3636547318883805e-03  -1.8094937750215881e-02  -8.3434946648114350e-02  -7.3691268502861548e-02  -6.7298001028404025e-02  -8.1159629597475583e-03  -8.9497091616862045e-03  -6.6965207550701939e-03  -1.3104120967801990e-03  -3.2758310360240022e-03  -1.3686218959852088e-04  -2.6777900038106237e-02  -1.4124156612795249e-02  -9.6562860686442726e-03  -5.3913185779186539e-03  -9.1539020385238527e-03  -1.3769501000990536e-02  -1.7991458128550176e-02  -2.0119683506561157e-02  -1.1876226444251677e-02  -1.6973566035764276e-02  -8.5571643398972191e-02  -1.4764888975195598e-02  -1.4287423855648018e-02  -9.6862830090712948e-02  -1.4503142244774947e-02  -8.8748553318174651e-03  -3.1152490955267727e-03  -3.2277222955424444e-03  -1.5765277706494729e-03  -6.3787043892265787e-03  -7.8605136523660260e-02  -8.4174499743825182e-02  -4.2556568561255359e-03  -7.0973800866735732e-04  -1.6065778568770997e-03  -9.3566468940699927e-04  -1.1993665875807368e-02  3.9690485937861975e-03  -2.2762541909973673e-04  -7.0064726011626499e-02  4.5871090666557693e-03  -2.4190390013305958e-03  -1.4493306754543599e-04  1.2615563781851677e-02  6.7338567025338270e-03  2.0799308681307833e-04  -9.4388684165306496e-04  7.1512261877684248e-04  -7.1170423040810615e-02  -2.1456390744776985e-02  -7.9598612210211323e-03  -1.1962149818584405e-02  -7.7847484780721801e-02  -8.7323790483138011e-03  -1.6639613822606897e-03  -1.6397260648809409e-02  -2.5205425788702423e-02  -1.5690026288865989e-02  -1.7002915857457404e-02  -1.3257046403692532e-02  -1.1761740183075499e-02  4.8035390426000191e-02  4.8047273628929237e-02  4.8856254050903367e-02  7.9790381025711532e-01  4.1795764538414014e-02  4.2127123620215784e-02  4.0956054590675361e-02  4.0776232565334150e-02  4.6246543658612964e-02  4.6234053276758204e-02  5.3892061543071010e-02  5.3300449258244766e-02  5.8839525857466032e-02  5.8425775022059166e-02  4.9919153083138296e-02  5.0061794851821835e-02  4.5278692405035924e-02  4.5619591899957200e-02  3.9217460165656477e-02  2.9199063916916040e-02  3.7869018673060036e-02  3.9528123766631867e-02  4.6295896991363127e-02  4.6373510055931405e-02  4.9179311838767885e-02  4.8017156226418743e-02  4.1807954000210687e-02  4.8111300785434317e-02  4.1845662035937002e-02  3.5798278825815218e-02  3.5971592536830271e-02  4.0794881237509843e-02  7.8326229616744947e-01  7.8500958013293076e-01  7.7968398642095416e-01  7.7799303479004822e-01  4.8849395529960447e-02  4.8300672807153257e-02  4.1334802109694278e-02  4.0673657514855605e-02  5.5161910713428748e-02  5.5497062230984065e-02  3.8239155534130660e-02  3.7693137168698321e-02  3.8200619222364764e-02  5.7891042716268694e-02  4.7543911976776911e-02  4.8278428458547643e-02  5.5952910271542006e-02  4.2803836200048420e-02  4.2985744506636003e-02  4.7485000118869539e-02  5.6597512624529056e-02  5.8224889179252864e-02  4.7540933971503010e-02  4.5661505633271419e-02  3.4704915314336240e-02  4.8520669467894094e-02  4.5450571795938761e-02  7.7656118351139136e-01  5.3707034409688756e-02  8.1361818374426997e-01  4.7715425935738860e-02  8.1335920854842725e-01  4.7896007605371105e-02  5.0093003260674424e-02  4.9471626106060519e-02  5.5373855756921608e-02  3.8223368393101059e-02  4.6732865526821432e-02  5.5800609584700879e-02  4.0177513865217361e-02  3.0736831016000072e-02  5.0021761147499982e-02  4.3121948714392996e-02  5.3004643896462048e-02  4.0204503634533796e-02  3.6824891280566416e-02  4.6267224263132560e-02  4.7442649554090367e-02  4.8651197043064635e-02  4.3404692350829541e-02  3.7766752699512872e-02  5.0314690297709755e-02  4.1659669617801501e-02  4.6412349829884618e-02  3.7278226037277477e-02  1.8489903121250720e-02  4.9609272945465403e-02  5.0298831878637540e-02  4.3548472141540104e-02  4.4303787882691840e-02  4.0453918091698828e-02  3.8692522816483943e-02  4.3690454310935975e-02  4.0696410894732610e-02  4.0220193840207162e-02  4.0340704748420268e-02  4.9902015473734636e-02  2.6635915657768822e-02  4.2154354409424326e-02  5.4915061308674164e-02  3.5153695240195362e-02  3.3006942375198571e-02  4.5389663076842134e-02  3.7516052296449873e-02  7.6422714699142713e-01  4.7515208765550210e-02  4.9399794710513041e-02  5.0934640572512194e-02  4.4039853474911544e-02  5.8754905751365154e-02  4.8172168549664843e-02  3.5412837707266311e-02  5.3582127799808733e-02  4.0680370199993182e-02  5.3805244429902178e-02  4.8907309573504441e-02  4.0874731423210839e-02  4.0263167164905266e-02  4.7151521556810447e-03  4.8968162446240332e-02  4.6718329784558095e-02  4.9073735666932392e-02  5.4350784018334465e-02  4.4245297496205822e-02  4.8810990282583587e-02  4.4816442300645333e-02  4.3433542175362973e-02  4.4702900360647557e-02  3.8613381548384354e-02  4.3293511191915747e-02  4.1443168692625446e-02  7.7257692107172371e-01  3.5891113005085372e-02  7.6657391490852700e-01  4.2001410930695850e-02  5.6203312130134624e-02  7.6755751642249814e-01  8.5870255820435581e-01  8.5661611427100659e-01  7.7379613368358469e-01  3.8648197939571236e-02  3.6157376193833690e-02  3.9083166185974419e-02  3.3491634953875520e-02  4.7649212891692952e-02  4.1144001982080895e-02  5.0098085950316708e-02  4.3599787162239070e-02  4.7788937721336876e-02  3.8620222366814366e-02  8.0031783905675158e-01  7.9977628597749484e-01  5.9417005065221455e-02  4.4209522433125904e-02  4.0366541470380150e-02  7.8825334276431680e-01  5.1570639492240396e-02  4.2074259901485181e-02  4.2342816113274485e-02  4.5741421691099723e-02  5.3585833584930860e-02  5.5532134513040204e-02  5.7145730806949943e-02  4.4383728667260744e-02  5.0435062401904318e-02  4.5002156502207270e-02  4.3321266202529310e-02  4.6160013062859072e-02  4.4055914707568408e-02  3.3835979780781865e-02  4.2554107460863570e-02  3.6568728350809300e-02  6.1175286696922425e-02  4.8988208919669450e-02  3.4174780062274694e-02  5.2150326095479871e-02  5.0408653319918638e-02  6.0395123288669951e-02  5.0952327655152813e-02  4.2945027378298875e-02  4.1576496724098827e-02  4.4057140210612654e-02  5.7853572093796143e-02  5.0154587598629223e-02  3.7121835236570165e-02  5.7765922755105836e-02  7.5319434398866558e-01  4.8754407763649941e-02  3.5932255859145237e-02  6.4637386247330342e-02  4.3741172471717729e-02  4.1686790899420810e-02  7.5138101330333795e-01  4.8389038941198559e-02  3.9689431555101289e-02  7.8867285600680404e-01  4.6789941052268795e-02  7.4213553354893436e-01  7.8933876306648820e-01  8.0941143479010946e-01  3.4008518993224761e-02  5.1836295967732281e-02  5.8467224871591873e-02  6.5641377598237835e-02  4.7754321635146535e-02  5.3915762612728929e-02  7.8262706325933007e-01  4.9175281116424850e-02  5.1722174085515452e-02  4.6456157910655951e-02  5.3726049623000614e-02  5.9270786478797750e-02  3.6185703056286204e-02  3.3945533856610553e-02  5.7538088807617960e-02  4.1938840751416101e-02  5.4522327498516855e-02  4.3526981009221928e-02  4.3221959867259033e-02  4.0629119619361075e-02  8.0074612446432003e-01  5.7124215605431329e-02  7.4075816551828633e-01  4.9010699701001512e-02  4.2749081548495757e-02  3.3177244032927031e-02  3.8805217785962395e-02  4.5203632988632086e-02  7.9306369452557479e-02  4.9570588224161903e-02  3.9276712778348565e-02  5.9111552409630751e-02  5.7542510263977088e-02  4.2830970743692701e-02  4.3443674606246478e-02  4.3061896294425750e-02  3.8921173885317129e-02  4.0308349842909146e-02  8.0485729921020510e-01  6.1415183994075126e-02  7.5628489615873629e-01  4.6946005899085257e-02  3.2909754434617994e-02  4.9736215167845772e-02  3.9849389732626410e-02  4.2109237897489819e-02  5.3625165129352864e-02  4.6602730344925042e-02  3.3335527789953946e-02  4.5464620457343882e-02  3.8684463565473719e-02  4.1459725891466882e-02  3.8912015360230603e-02  4.7867231074433664e-02  8.2016233775080982e-01  3.6556932769137900e-02  4.9233057018339133e-02  3.9454373760361296e-02  7.7339832596716285e-02  4.8966017953942356e-02  8.3610705459193232e-02  7.0165982108693209e-02  4.7230306742460600e-02  7.5471069274702174e-01  5.0952336805357129e-02  3.8561067793348294e-02  5.5187263693641526e-02  5.8265012382914115e-02  4.4614144612888887e-02  5.0394966998658836e-02  4.5982140710408646e-02  4.0763517114908998e-02  8.1390462105500616e-01  4.0106534795220673e-02  4.5611514174753197e-02  5.0737912506540243e-02  4.9536218294575107e-02  3.7544720861774475e-02  4.6771382137258982e-02  4.5571381932205751e-02  4.4449681608990058e-02  3.9081341732100906e-02  4.1533005207889447e-02  4.8687149708444115e-02  4.2461332675366191e-02  4.9947388628986046e-02  3.3318231364316393e-02  4.1281565086356324e-02  4.0583645687260222e-02  7.4043357318848113e-01  4.2466626925690684e-02  4.3348822186906485e-02  7.7110857184214354e-01  4.2905716708926060e-02  5.0098549875822768e-02  4.8118221409483256e-02  4.3983866826470909e-02  3.7584801382384722e-02  7.9564017271249399e-01  5.1438910394560687e-02  5.1158219199069856e-02  1.5689900848556003e-02  4.2275110141976970e-02  4.8381480354675009e-02  4.0700384278714447e-02  7.9503145342598591e-01  5.2999956786009286e-02  3.1604107107622216e-02  4.6123477933039100e-02  4.7950233421977427e-02  7.7680972691715325e-02  9.5949256533794061e-02  3.9752041568231818e-02  5.8547407188696055e-02  7.7943198686421777e-01  4.9636799363001721e-02  4.8331720961625288e-02  5.2267987695558356e-02  5.0467219275971226e-02  4.0499639600407117e-02  4.1956904889204880e-02  4.8507798146348903e-02  3.9684456789890084e-02  5.0486514277047687e-02  4.2332628903585384e-02  3.4057984732558881e-02  4.2861704819979501e-02  3.4239048807316326e-02  7.6911347276116104e-01  3.9127888289073043e-02  5.0592984127453243e-02  4.5734395325444620e-02  7.7145227353885029e-02  3.9809026371922816e-02  5.3065261637836925e-02  3.0491990583175480e-02  3.8036303348746608e-02  5.0105219181878248e-02  4.9652652286021580e-02  3.4851883366777719e-02  7.8115426458726389e-01  4.2499802790686311e-02  7.4027715024440291e-02  5.0349333007785824e-02  4.8495043652835960e-02  4.0454519926073490e-02  4.0953823581589249e-02  3.8636309720661260e-02  3.9353329040612700e-02  5.3051096315914065e-02  3.7986865351140785e-02  3.9693260681981611e-02  3.2103218504732925e-02  3.7922583793893697e-02  3.5942157823760576e-02  5.0405094873880077e-02  4.9274429373157104e-02  4.7245539370968384e-02  4.0370217042816653e-02  4.0370020358228141e-02  3.8998145424801296e-02  4.0763863298468192e-02  4.7103776934811228e-02  3.5869080656084247e-02  5.6920184157192626e-02  4.8457737589851627e-02  7.7651890705191795e-02  8.4899358013009663e-01  3.4996084230098028e-02  4.9610588846731980e-02  4.0955370827235382e-02  4.7066143590016131e-02  3.3671531131986170e-02  4.4960491543095810e-02  4.1134273165126335e-02  3.8359281266921785e-02  3.7735621603173335e-02  4.5923977610324053e-02  5.7714979752164594e-02  4.1051228639495764e-02  6.9392805478367845e-03  7.9041443093689756e-01  4.1031491694221066e-02  4.1659153591225330e-02  7.2155682562188073e-02  5.0184931976307211e-02  5.5665097038685205e-02  1.0006086294094484e-01  4.3618939676030956e-02  1.2881172956962841e-01  3.8306998873834479e-02  3.8246434138955371e-02  4.1660565996688700e-02  3.4507409448036819e-02  4.7600042603722956e-02  9.7739018977486519e-02  5.6365468834386256e-02  5.0240495029974623e-02  3.0794547099506107e-02  3.9467686669210550e-02  3.8734872186175107e-02  4.9442683160944814e-02  4.9766681260559720e-02  4.0224770006437503e-02  5.9057171103219973e-02  7.1200647193312239e-01  7.1835288062301472e-01  4.6020390245008667e-02  1.1349664244104078e-01  7.9529688436903245e-01  4.8853528569444304e-02  4.2030114257294242e-02  5.7053754799911170e-02  3.1589806895970018e-02  3.5449924917535791e-02  5.4960908763561578e-02  3.0420078766658819e-02  3.5955252571572574e-02  4.7982338133863163e-02  9.2590088180928856e-02  1.9708087939820474e-02  8.9668179286040747e-02  4.0436029461515609e-02  5.0084988888747350e-02  4.9938825721313577e-02  4.9289048842316323e-02  3.9594721493405760e-02  4.6288159517451820e-02  9.5169563960854436e-02  4.2811543566801870e-02  4.4795790663221362e-02  4.2888097427643525e-02  4.1353787347215891e-02  4.6089692390162529e-02  5.3787154624829421e-02  5.1475764341884729e-02  4.3595372339080375e-02  4.0944570609326478e-02  3.4606034308238685e-02  4.8139176763549958e-02  3.2242413763945849e-02  4.8925006122442875e-02  4.5453144751143218e-02  -1.5782153602857871e-03  7.1821364949020761e-01  7.2486419796706358e-01  4.9442017511170076e-02  3.0296201240345315e-02  4.5882909523313323e-02  5.3383686308353946e-02  4.1933717995295688e-02  5.7485988378825410e-02  4.5412989051086934e-02  6.9016132854135026e-01  5.9200007526532428e-02  5.5879625960996777e-02  4.1112073983643659e-02  7.1207192000201736e-01  3.9785203306937786e-02  4.4770125228105459e-02  4.2740418902434692e-02  4.7370394204980799e-02  5.4815939544343828e-02  5.5711781586934246e-02  1.1952957134347843e-01  3.1937007666693398e-02  4.8139214450051489e-02  4.0374303187915156e-02  3.9670074672602598e-02  3.6644288655045869e-02  7.7610108490881236e-01  5.5504299925098290e-02  4.8344628040444100e-02  4.2761760712943714e-02  4.2619781427447836e-02  1.1841171820857281e-01  3.4999089053993876e-02  7.8575881920187329e-01  5.7145990782018104e-02  3.7762315133410232e-02  3.9532741441488724e-02  3.9847010365738351e-02  4.6847847987443146e-02  4.4569750389131808e-02  4.8400133227078167e-02  4.5288873939160944e-02  3.9558938254109978e-02  3.9149091969184098e-02  4.3311639170843332e-02  4.6468493185564418e-02  4.6669816127890312e-02  4.1501443333163059e-02  4.9474179511736792e-02  4.4678951947898421e-02  4.8409042665657535e-02  8.4683429435722590e-01  6.8785025003866684e-01  8.3666078657129994e-01  5.2968319649723428e-02  1.1814055865495449e-01  3.6771054567417728e-02  5.8992004207261049e-02  3.2099793679924715e-02  6.9078003155970436e-01  4.7534678096710511e-02  3.7987754572685911e-02  3.6897257058095947e-02  4.0882577854594336e-02  4.4190873392635277e-02  3.0991863746068923e-02  4.3839805943247628e-02  3.8816079679218428e-02  4.8207363330951873e-02  4.6503876498170664e-02  4.9349146537173691e-02  5.0027168112889132e-02  3.4083952593790580e-02  5.5784201891334914e-02  4.0081327461121967e-02  7.0677368110500682e-01  7.7469090923915551e-01  3.0471554132241539e-02  3.7733966653439588e-02  3.7405777697922256e-02  7.7692532445148244e-01  7.5084685670173665e-02  4.8401492815370581e-02  4.4356414289957333e-02  3.3588409379459165e-02  4.0058005356847372e-02  4.9082866263837475e-02  3.9416314209157345e-02  8.0718333313385704e-01  6.7778880063234737e-01  4.6943906032626902e-02  5.1663724140196571e-02  3.0828417565975312e-02  4.3519324101552806e-02  3.7771508478982432e-02  8.2800244606650431e-01  3.8407219621528363e-02  3.8423844165486457e-02  4.5979001742489499e-02  8.3580366427474295e-01  5.4520679792313037e-02  8.4636119868824511e-01  4.1570996158682358e-02  4.9150272239261827e-02  4.7578698154241095e-02  4.8781631595818116e-02  7.6898115882639428e-01  3.7652096492441729e-02  4.5582336279842185e-02  3.8710753188373699e-02  4.5742285650711229e-02  4.6186667556484887e-02  5.7545506757397454e-02  5.8809610810742978e-02  7.7247548488578199e-01  4.4131806839281938e-02  4.0657852658079745e-02  7.7072156957923277e-01  5.6838741260603905e-02  5.1465567012064367e-02  5.3789013513808076e-02  4.3997486611014859e-02  5.6833334079171634e-02  4.0465424220763671e-02  4.0161365995687731e-02  3.4559263371629595e-02  4.7442232418547711e-02  5.0126179907430513e-02  7.8616902211732720e-01  3.3316533199672024e-02  4.0899024270773521e-02  4.6802100721440573e-02  8.3649072081879272e-01  3.7117231312048082e-02  4.5799817075417075e-02  4.6805060511624474e-02  4.9911713269249196e-02  5.5754794284872879e-02  4.4231161650053419e-02  3.7218209843141344e-02  4.9846639763962503e-02  3.9738744410489274e-02  4.9178610113440255e-02  8.3473883888176670e-01  5.0359979983503833e-02  7.9124743367902173e-01  3.0925492903937885e-02  4.6342582575442832e-02  4.9029243179967777e-02  4.4274335161374204e-02  3.2585788181975169e-02  4.8512917830748903e-02  5.5178506670859981e-02  1.0567447685800314e-01  4.8343631196187842e-02  4.0207066908651959e-02  4.8334792340835472e-02  3.3304910710254064e-02  4.8851269853144877e-02  3.8201632735299459e-02  4.2601569737194749e-02  3.2278197778229642e-02  5.7524560650866474e-02  5.4546767240667690e-02  5.3436913184601142e-02  5.5778545318548041e-02  5.5309083074815441e-02  3.9575596209005609e-02  4.5978999403081061e-02  7.9653655245330635e-01  7.9177355850748932e-01  4.5596122049856996e-02  3.9658570180569098e-02  4.0651601173864377e-02  9.9523471457488757e-02  4.3353263760518720e-02  4.4290840798023610e-02  3.7139626228170047e-02  4.7330646038552318e-02  3.6921650909740832e-02  3.9817961501655376e-02  4.3457401236457735e-02  3.8201006715446892e-02  3.7052454093591931e-02  4.6816117460922506e-02  3.9814534491818904e-02  4.1243280069404968e-02  3.4843504472607735e-02  5.6464240087247819e-02  4.0728866921043348e-02  5.9558924286303883e-02  5.4584009987896878e-02  5.6310403071680969e-02  8.4154399624712356e-02  3.8954413485781089e-02  7.9302115669807505e-01  7.9862514273181773e-01  7.9624973716128911e-01  8.0384444153769385e-01  4.2477011515516971e-02  4.4400028231733411e-02  4.0997333567613682e-02  5.7847613111274038e-02  3.7757600241586801e-02  7.8224804841810314e-01  4.3197926215848954e-02  4.7304861577919743e-02  4.1854921370841215e-02  4.4427491303911631e-02  4.2643895800661843e-02  4.1618842929258118e-02  6.7205002506444311e-01  3.9968268587265932e-02  3.9789915271458733e-02  4.4940728744209991e-02  4.8150564037892182e-02  4.1682686016234406e-02  7.7842161189066417e-01  3.6577770068416969e-02  3.9321660053553718e-02  3.6251057152942329e-02  4.8626108749977838e-02  5.1313975143197028e-02  2.9804058083014742e-02  4.9411590657014122e-02  5.0415483706348747e-02  4.8647156481352129e-02  4.0651739443064654e-02  3.3282089678808621e-02  9.3334157071612314e-02  2.8380634275544724e-02  3.4504374630647094e-02  4.1832446994097293e-02  4.7878268131913343e-02  4.7075339413152555e-02  8