<?xml version="1.0"?>
<VTKFile type="UnstructuredGrid"  version="0.1"  >
<UnstructuredGrid>
<Piece  NumberOfPoints="1417" NumberOfCells="2668">
<Points>
<DataArray  type="Float64"  NumberOfComponents="3"  format="ascii">-0.9967519295108285 0.2832019496598691 0  -0.9940262621166818 0.1740637799636547 0  -0.9790134840659835 0.06561175373579636 0  -0.9518907660955047 -0.04079602812801209 0  -0.9130464761403466 -0.1435394609241763 0  -0.862911900047222 -0.2413929527455576 0  -0.8022802356881307 -0.3330890126908864 0  -0.732303429742806 -0.4170369442755553 0  -0.6541950739718253 -0.4923529978938209 0  -0.5705316955189053 -0.5570642671455028 0  -0.482834221338364 -0.6116035782488428 0  -0.3907551925445434 -0.6563773029474574 0  -0.2954181839883204 -0.691283583193018 0  -0.19777359280099 -0.7163162913816846 0  -0.09938738303895502 -0.7311927594784723 0  -0.003734419902820183 -0.7360313284773312 0  0.09228993639179629 -0.7311804142130438 0  0.1901349534392641 -0.7162852584296955 0  0.2871943864912298 -0.691316730128943 0  0.3820191752998279 -0.6564271960245203 0  0.473659810923465 -0.6118810242476181 0  0.5610441523571605 -0.5578549357593976 0  0.644141489773685 -0.4937460202216933 0  0.7214715826694063 -0.4199229411089304 0  0.7918639207331644 -0.3366035551540998 0  0.8531074360665227 -0.2453088625562327 0  0.9039352147177762 -0.1477495862671689 0  0.9431663496923296 -0.04567815597091023 0  0.9709892774341612 0.06059831102864516 0  0.9867712447967139 0.1695281422854711 0  0.9901933692646295 0.278421685945715 0  0.981406911952961 0.3872133735471211 0  0.96048088458401 0.4944900438105416 0  0.9276536022337383 0.5987306878245314 0  0.8837555160614896 0.6979308620616317 0  0.8289641551596735 0.7917718423573713 0  0.7640992035608797 0.8790222097338638 0  0.6896521529872114 0.9590342242493921 0  0.6072769251797475 1.030016948526188 0  0.5175838409773633 1.091556298537914 0  0.4215975112649851 1.143003836620165 0  0.3206622736483358 1.183587294054753 0  0.216063536938953 1.212962338154696 0  0.1084661525791166 1.230884072009732 0  -0.0008418805066577749 1.236943176003584 0  -0.1094501016265978 1.231244454126249 0  -0.2169689049907589 1.213726074800953 0  -0.3221907998585805 1.184609688623674 0  -0.423424739034656 1.144349435731885 0  -0.5194857714575316 1.093334698660996 0  -0.6092696247864096 1.032330539729282 0  -0.6921676540940821 0.9616748743421929 0  -0.7666193399696424 0.8824959246592344 0  -0.8321253029877704 0.7953907320685148 0  -0.8875201370920898 0.7017234236352988 0  -0.9321668300437426 0.6022955031403742 0  -0.9654623913407944 0.4988737686505699 0  -0.9871523419157553 0.3918599409287797 0  2.633501898601792 2.053016829174888e-07 0  2.625780041857768 0.2015927763021534 0  2.602638025654644 0.4020011893711257 0  2.564228081745101 0.6000525959302347 0  2.510772126669843 0.7945803165395492 0  2.442579390065421 0.9844469368377926 0  2.360053700114122 1.168536847409301 0  2.263678336200561 1.345767822573078 0  2.154018770132927 1.515101617717893 0  2.031718888280137 1.675546131640587 0  1.897500409141537 1.826158718338601 0  1.752136981967727 1.966047772241869 0  1.596501934537365 2.094411486602936 0  1.431488857672723 2.210475449796704 0  1.258080837760484 2.313567937002019 0  1.077285293616972 2.403085729705971 0  0.8901717792869606 2.47849956446295 0  0.6978293536291333 2.539363867788636 0  0.5013958991741696 2.585331093408479 0  0.302018359485093 2.616132947375388 0  0.1008712545113484 2.631571509946551 0  -0.1008687100314303 2.631575781032956 0  -0.3020192587200675 2.616128084391835 0  -0.5013941346692338 2.585337986007834 0  -0.697829432273281 2.539364720265844 0  -0.8901687578564731 2.478495174064899 0  -1.0772877881425 2.403084717260194 0  -1.258078657990374 2.313569069746733 0  -1.431490215289371 2.210477086598878 0  -1.596498473257993 2.094410554906004 0  -1.752140507345539 1.966053095839845 0  -1.897497460583981 1.826160827712907 0  -2.031722448098808 1.675550531005735 0  -2.154023933324655 1.515105014492824 0  -2.263679144394766 1.345768591159662 0  -2.360059140942278 1.168537162875658 0  -2.442579802095111 0.9844472942002592 0  -2.510775875314603 0.7945838532957502 0  -2.564233578285099 0.6000532349700555 0  -2.602638304115263 0.4020011684415802 0  -2.625779446885851 0.2015946036904501 0  -2.633500564931222 1.30157982162184e-07 0  -2.625773543245745 -0.2015937241059914 0  -2.602637938544367 -0.4020034670669755 0  -2.564232976090073 -0.6000522903187873 0  -2.510774876988364 -0.794584639796449 0  -2.442583220423971 -0.9844500118042547 0  -2.360058074883625 -1.168538024234328 0  -2.263682293816785 -1.345772126452738 0  -2.154021731806225 -1.515106201779906 0  -2.031722061911798 -1.675548888188972 0  -1.897498273153359 -1.826159780864901 0  -1.752141829702225 -1.966051786975159 0  -1.596498826658627 -2.094409716536683 0  -1.431486798839483 -2.210471328619397 0  -1.25807729890164 -2.313569363779012 0  -1.077284396253401 -2.40308499059828 0  -0.8901713325240415 -2.478498374504171 0  -0.6978320130109283 -2.539368611135302 0  -0.501395198747389 -2.585331960029745 0  -0.3020187183825414 -2.616132565881245 0  -0.1008700730967376 -2.631570791566594 0  0.1008692769574825 -2.631575252386425 0  0.3020204790013557 -2.616132226443409 0  0.5013953268091208 -2.585331777911739 0  0.6978319413776755 -2.539368638201741 0  0.8901709379399877 -2.478500317816176 0  1.077286482796554 -2.403084458332949 0  1.258077508302051 -2.313569542089945 0  1.431486672813037 -2.210471707192848 0  1.59649889993573 -2.094410310749464 0  1.752140430661348 -1.966052836387772 0  1.897498497581995 -1.826159354157941 0  2.031721270728192 -1.675550824266761 0  2.154023727356298 -1.515104012539987 0  2.263682002789192 -1.345771581112118 0  2.360058266328457 -1.168538375795533 0  2.442579156242896 -0.9844468345882618 0  2.510775685281757 -0.7945811030770834 0  2.564233052709157 -0.6000536648614344 0  2.602642801736499 -0.4020025938491761 0  2.625778889716939 -0.2015953341012867 0  -0.004083527473491887 0.2540190640538 0  -0.1280963797862681 -1.681020595803732 0  0.8656632047850129 -1.465316692699454 0  -1.057757644759663 -1.344861974945116 0  1.532388391984193 -0.8382535093610429 0  -1.660128360353671 -0.6017097569986832 0  1.799427219192179 -0.05650000557399043 0  -1.811135169428895 0.2024341559527299 0  1.698104921259303 0.7540309268019726 0  -1.598597534559983 0.9753029276909075 0  1.258513334305063 1.423514465693987 0  -1.116123395195973 1.551964947281989 0  0.5853789727296135 1.840691581778057 0  -0.4559417935572254 1.877694992683923 0  0.4513386642256731 -1.94704972775736 0  -0.7255602056792082 -1.872738444511306 0  -1.635609701017128 -1.248761880150908 0  1.436678066806463 -1.494784775086387 0  0.06133245987530322 1.762530703726202 0  0.3306007822615803 -1.417155374895359 0  2.011916892629809 -0.5614649032350634 0  -0.4854716536605191 -1.24086773542439 0  0.486616351099283 0.3502126681934503 0  -0.503323878205803 0.2455021480090325 0  0.9607080612047377 -0.9373420116807816 0  0.3080913995322613 -0.1237423564192056 0  -2.094255745900225 -0.2453248086220105 0  -0.256309563494153 0.6779126223645832 0  -0.2278895756002418 -0.1802641493706899 0  -1.136725144524045 -0.8004721242660889 0  2.077482312604334 0.3934979724784092 0  -0.0001380093309532994 -2.155761064674771 0  0.9330398391763173 -1.944297620351079 0  -1.194400407275019 -1.800902573251299 0  1.373664235210538 -0.3540743282768747 0  -2.021968108203735 0.7212098264667338 0  1.804028285792147 -1.214856141324449 0  -1.444291221258261 -0.1508420881245345 0  1.723006193016359 1.307768752991699 0  -1.968140151953184 -0.9392803324608152 0  -1.627643001374328 1.444884844819661 0  1.067611521970629 1.870122375727123 0  0.1691307028304618 2.19483913422561 0  1.479803519482576 0.3103296943324461 0  -0.06051335079394479 -1.245864707673688 0  -0.9108933912912841 1.970933438201366 0  -1.451409157862147 0.5150462253228559 0  2.204489431893785 -0.1864161714334706 0  0.2111656507966598 0.7301485673677864 0  1.276757440014286 0.9527890873438627 0  -2.220188154822054 0.1447293001076848 0  0.8057667759023102 1.441595978565556 0  0.5479994514586473 -1.059800075355468 0  -1.149098837406551 1.10642255008969 0  -0.8140259674732527 -1.028557540055303 0  -0.6711519895203394 1.499079396974985 0  -0.358319186343862 -2.002092415375547 0  2.095920157575321 0.7908933800218153 0  -1.964745171884686 1.103020931959906 0  -0.3469839561389174 2.241896110314343 0  1.425442652065749 1.762097830203983 0  -1.314183749593801 1.863503263951805 0  -1.566488575200372 -1.628413448947815 0  1.294179554045 -1.137023331423248 0  0.3653042321003623 1.546227405841845 0  -1.188104414179086 -0.4321047313104376 0  1.073126541643877 -0.5844845975797733 0  -2.019248464058205 -0.590228333961727 0  0.538065206466914 2.208788522646714 0  -0.2515434063771387 1.574944072410009 0  2.061313452547046 -0.9363689523970986 0  0.6941073374193127 -2.195632105981126 0  0.3262382310612691 -2.271520138914995 0  1.30302762139776 -1.853719348256466 0  0.9882973531857495 1.144567153096833 0  1.318034579296001 -0.008876857577615381 0  1.292828706133273 0.6021265322988656 0  -0.4774355985988091 -1.602092472430716 0  -1.471680253915895 0.1812771080697345 0  -0.636565813113793 -2.203903998096627 0  -1.304450182830282 0.812058528551825 0  -1.311498504072398 -1.105787034803946 0  1.718523090371188 -0.3844969037490376 0  0.209743800375734 -1.060125225995343 0  -1.639500616681052 -0.9242715919587267 0  0.6122657236093737 0.02821383442789289 0  -0.5571585958370945 -0.09473591905571364 0  0.05704803856065736 -0.3697281231634491 0  -1.781298441956191 -0.1265558685206853 0  0.6877662988653398 -1.730868997151949 0  0.13973232787003 -1.861135640719073 0  2.007251135353068 1.12082024986813 0  -0.7481853644105035 -1.434435424732435 0  -0.5790756894878656 0.5726232494813017 0  -0.9985970215359948 -2.075749738579782 0  -1.957157203008398 -1.2580519474239 0  -0.1603772581074884 1.987367987636586 0  0.8143633830119129 2.05752074872379 0  -0.641222149857454 2.132177099775891 0  1.753
[...]
<PointData  Scalars="f_4427-1"> 
<DataArray  type="Float64"  Name="f_4427-1"  format="ascii">3.3845288746178953e-01  3.3953308923600328e-01  3.4802779422070468e-01  3.3258779735848204e-01  3.2854365357552195e-01  3.2511744259568365e-01  3.4095362726101869e-01  3.0939588152326747e-01  3.8133215311918095e-01  4.1364099206245319e-01  4.2474228208027426e-01  4.3706305137121698e-01  4.3424988035341150e-01  4.0014307568352425e-01  3.7418578234982308e-01  2.6744189582789601e-01  3.3625587631539661e-01  4.2211900384990625e-01  4.3350486617750000e-01  4.2620924364584306e-01  4.4138053751857281e-01  4.3019803962036413e-01  3.8587764645999051e-01  3.5027645266655649e-01  3.4321504589076246e-01  3.2256471301677297e-01  3.3661568386683205e-01  3.2454338139761890e-01  3.3221138386216759e-01  3.3800288752398860e-01  3.3712033555379484e-01  3.4477170512492256e-01  3.3577285983147731e-01  3.3833320199521605e-01  3.4331412275182754e-01  3.5714577018909049e-01  3.5213057905142797e-01  3.5341024019170147e-01  3.6174413896159369e-01  3.5800161218560306e-01  3.5608731756977274e-01  3.5777344262722216e-01  3.6176824498947563e-01  3.6501014516759522e-01  3.5279063398658006e-01  3.5457630881225416e-01  3.5561124158867030e-01  3.6896046401093585e-01  3.5768277176137686e-01  3.5475970625846626e-01  3.5303609161407012e-01  3.5889924156569925e-01  3.5229047847653372e-01  3.5305378423371292e-01  3.5685745578775513e-01  3.4169296889337791e-01  3.5075377480624237e-01  3.3152103450693721e-01  -8.7889075328328264e-02  -2.2263612720943498e-02  -9.1859489442589648e-02  -9.2089889098929789e-02  -8.0880128749027599e-02  -9.0823361999813501e-02  -8.6412565531947608e-02  -8.7699214147611546e-02  -8.9028839912734414e-02  -7.7220841520641542e-02  -1.4513130889721084e-02  -9.9869511114135945e-02  -3.7017908416160702e-03  -2.6651954789863753e-02  -2.1687501833735974e-02  -1.7862618721543679e-02  -1.7534606796946971e-02  -7.5418336224328975e-02  -7.4934800874897040e-02  -8.2644719541755153e-03  -6.0079364851350979e-02  -1.1909293213440718e-02  -6.4074423008170345e-02  -6.1381847104804198e-03  -6.7734747913755791e-02  -6.8590501205033502e-02  -1.8132468801387271e-02  -2.2063669003409624e-02  -2.9114708081327532e-03  -2.4636327102052793e-02  -2.2948619394797976e-02  -3.4345527891205603e-02  -1.9600758660450381e-02  -1.8636657886616972e-02  -7.8645691898635267e-02  -3.0348813692166236e-02  -8.5286774112541472e-02  -2.8978012384817189e-02  -3.2704777508384714e-02  -8.8936637516744646e-02  -3.1182185152961311e-02  -9.9575882755346706e-02  -9.7110262591144733e-02  -9.0840163920244077e-02  -4.0811401755254433e-02  -3.7679956223432447e-02  -4.0233576633993080e-02  -4.0965892726432092e-02  -2.8546394826357981e-02  -3.8625817169849433e-02  -3.4509124151526183e-02  -3.2488281198179154e-02  -2.7498103243219996e-02  -2.2120270136876334e-02  -7.5189503118309714e-02  -1.9366897459572804e-02  -2.9634419332062692e-02  -3.2594375147796131e-02  -1.8282213211492350e-02  -7.3683412840443802e-02  -1.4333200664329094e-02  -7.1968908676394314e-02  -2.0429168548977410e-02  -1.4654206852696148e-02  -7.4769545799057230e-02  -2.5145931353862682e-02  -1.1606904988428096e-02  -3.0799724188377790e-02  -2.4164038375251783e-02  -7.2928719692818667e-02  -2.0818857311326822e-02  -2.7529991334790765e-02  -3.3654782626701116e-02  -2.6895848593827314e-02  -3.6495333705891836e-02  -3.9773952495686847e-02  -3.2724226556591816e-02  -9.2822221138620528e-02  -4.6244981177857698e-02  -4.6457910401567555e-02  -4.5328773566669499e-02  -4.3789614551484030e-02  7.8768016982504208e-01  4.2367093007996445e-02  4.3296353217617718e-02  4.0699476225753831e-02  3.5118726781184759e-02  3.1387482888966547e-02  3.0870010323369342e-02  3.2420873221858645e-02  3.6211956467724613e-02  4.0300667282727388e-02  4.5348894222316354e-02  4.8845150982734495e-02  5.2623419122950217e-02  5.4174413568520076e-02  4.4518956851713018e-02  4.3415140057458848e-02  3.5521833432117754e-02  4.0075604865861189e-02  5.5333045526530129e-02  3.5526296236974550e-02  3.0784622181077869e-02  3.2956488178281729e-02  7.7283357273742415e-01  7.7585544520590721e-01  4.2355740992981020e-02  8.0641433498355153e-01  2.9663924972054601e-02  7.6654246047929453e-01  8.0564818455832010e-01  3.3311720702782002e-02  3.1586620262066933e-02  4.2993361799745132e-02  4.2753581117737811e-02  4.0177135984594825e-02  2.6851046457785407e-02  3.4672598126254763e-02  3.4784743300018642e-02  2.6254187866167632e-02  3.9480235267739597e-02  3.0606719878322846e-02  4.2602701003546073e-02  4.8143768308219037e-02  5.3003629369961641e-02  3.0762177305616666e-02  1.4423866371442700e-02  5.0586194315674488e-02  3.2843872809404540e-02  2.8490447790435844e-02  7.6515373838455480e-01  3.9480647052486821e-02  2.9357713399023433e-02  4.8192752796970294e-02  4.1259171947561665e-02  4.2815544432282186e-02  4.1431375893245151e-02  5.0422525318058131e-02  4.3833045369145673e-02  3.2457328022023314e-02  3.6612500418027917e-02  5.1802569258605227e-02  4.3179431612563726e-02  4.5759862361778529e-02  3.6140671634244489e-02  3.9848235349081766e-02  4.8514730757018391e-02  1.7601912964909566e-02  2.9098713612568407e-02  2.9932682937464622e-02  5.0540526899085919e-02  5.3993518699891559e-02  3.0245189919508888e-02  4.0576486945856090e-02  4.0700352453801304e-02  3.9787879839805369e-02  3.8624369797064080e-02  2.5953054455420062e-02  3.6097369970452674e-02  4.2215149967902849e-02  2.8112475345299218e-02  4.0189677899217062e-02  3.7531844793726725e-02  3.7398399657737405e-02  3.1102278377080489e-02  8.6987561731428562e-03  3.3754306717122012e-02  7.7471573222702339e-01  7.7845204006795998e-01  7.9753186621583094e-01  3.0796767671746474e-02  4.4567598288428489e-02  4.4472496913579192e-02  3.4128444058969247e-02  4.1200292610520807e-02  7.5447483282411443e-01  3.9202368776138620e-02  2.9438251308931303e-02  5.4704034257344346e-02  4.9779371687587740e-02  5.1528970421982380e-02  3.4268626564507701e-02  4.6991534461857651e-02  3.9850320397838167e-02  3.2726700769692085e-02  3.4906332172814580e-02  7.5583844880790141e-01  7.5129191430889319e-01  2.6686409094296960e-02  3.2068443368101295e-02  5.2631889647219890e-02  2.5177704040866083e-02  4.3848414087976025e-02  4.2847125089999584e-02  3.8784292728435955e-02  3.6385967861890842e-02  4.2363858696972137e-02  3.5875502906889990e-02  4.1864859312152003e-02  4.5791556699876688e-02  2.5994909825997260e-02  7.7663434063627645e-01  2.8054020125657480e-02  3.0567245653531687e-02  2.5592243041665207e-02  3.8140061153632623e-02  3.3126350040990168e-02  3.3559449578688776e-02  3.8450922253812685e-02  5.3807082883130450e-02  4.2174429510102265e-02  6.0990723502619054e-02  3.1847455776788297e-02  4.1631151288592121e-02  3.6121253403175797e-02  4.3521877700902246e-02  2.5247785585116735e-02  4.1290146956709774e-02  3.6633794755151196e-02  8.4446808534752527e-01  8.4758095028323133e-01  6.7849927376253311e-02  7.7670916556021929e-01  2.6406930108239600e-02  3.0593856347428158e-02  2.5018932545938809e-02  5.1429987816775782e-02  7.7187473516691563e-01  3.3884606425707307e-02  4.6058483910958119e-02  3.0780274067616437e-02  3.0755468910578752e-02  -1.0482592814319590e-02  5.2645760803308038e-02  3.6278091174371592e-02  7.9133797240925530e-01  4.4930382240691159e-02  7.4593357676910743e-01  7.4885100193654552e-01  7.8928564123753520e-01  3.1814308926727319e-02  2.8626355417260042e-02  7.8730600803693451e-01  4.0958039423165150e-02  3.7320597569269816e-02  8.3078267022723062e-01  3.1039575624828866e-02  4.6772062252896367e-02  7.4009631804259024e-01  4.0494732403587363e-02  2.8028319933380542e-02  4.0704732934025156e-02  7.7804806707611429e-01  4.1867468127816401e-02  3.7252878010504774e-02  4.8322097082087567e-02  5.0674008299939247e-02  3.4970952008880229e-02  3.9236136372817441e-02  3.1685567995361465e-02  3.7805052516220607e-02  3.2391260594655288e-02  3.7293420589548633e-02  2.2062890200067853e-02  7.3286745745696447e-01  4.4605844932341800e-02  3.3849339526055865e-02  3.1954510519069730e-02  6.5729296457127800e-02  3.8032975428897761e-02  4.4436160592323519e-02  2.7145270845974200e-02  4.4005916664223675e-02  3.7128454921893039e-02  4.9859670241569683e-02  3.4729791282033302e-02  4.1705757362756335e-02  2.7866692146816370e-02  5.5893699359550575e-02  3.5564092644784648e-02  4.2643442765790150e-02  5.1320112075078639e-02  4.9496490898283785e-02  4.8236754872918876e-02  3.8411390143157621e-02  2.9845300697980675e-02  6.3704541409227086e-02  7.4499149053344393e-01  5.3817967546340481e-02  2.9277420519590317e-02  3.4322847244481702e-02  2.3590737568904067e-02  3.6464624841107379e-02  5.2872447155116062e-02  4.3925379711654639e-02  4.2722993756578134e-02  3.7892664539189970e-02  4.7656778089687601e-02  4.0787271067338482e-02  2.9084284543996745e-02  4.4324448828484478e-02  4.2121781157152531e-02  7.4554254732995751e-01  6.5716607228040139e-02  6.1574389620912925e-02  3.0427719719360379e-02  2.5161748205761173e-02  3.3094345031907509e-02  3.1934350441575686e-02  2.4069477474559158e-02  5.6041335394836252e-02  3.2641300972063803e-02  7.5179372767558916e-01  5.4319289979335030e-02  3.8563183289059728e-02  4.3981108800862513e-02  4.6560489555866280e-02  4.5943423723208851e-02  4.6632320752930591e-02  6.9658943385267430e-02  4.8946274874926657e-02  5.4818500495910173e-02  3.4769964102845698e-02  3.0580806455476901e-02  4.3149444461197575e-02  4.7590588186397359e-02  3.7525803395573230e-02  2.0637469941435720e-02  7.5459113145213974e-01  3.3905400749233434e-02  2.9672036741397595e-02  3.5520890159742705e-02  3.2720952779089554e-02  4.2004819859509393e-02  4.6742065702756630e-02  3.0604628886922600e-02  5.4342550756638859e-02  2.5851352035706657e-02  3.6278608172467683e-02  4.5775080542480931e-02  2.6457955287597364e-02  3.8748662473866831e-02  4.3860608668424186e-02  8.0603383493122530e-02  3.8891924948705470e-02  2.3625695782746498e-02  3.1918218107770069e-02  7.8998659326574006e-01  7.8621087607632112e-01  7.8827841284996925e-01  3.7258774534659422e-02  3.4857044036743237e-02  7.6836418544407792e-01  4.3910216347980542e-02  4.3226261128217647e-02  3.0668457806138555e-02  4.1377607662555244e-02  5.2862851348633652e-02  4.2484596141488397e-02  5.6229808624862938e-02  3.8598539039307843e-02  2.2042265185781479e-02  1.0681934973933446e-01  3.2754532287668600e-02  4.3365111774495341e-02  1.7871646513184153e-02  2.0597432597896634e-02  2.8943099451217341e-02  4.5894562043062762e-02  3.9640513200082259e-02  3.8093818889792741e-02  3.6160730199805695e-02  3.6362910794358619e-02  2.9878279123406393e-02  3.6185341922206904e-02  3.2559704214234431e-02  4.1589592095946322e-02  3.9975292702810757e-02  3.7471408778450899e-02  4.0204889376591203e-02  7.2156821413871419e-02  2.1941789538145597e-02  2.9412840777728877e-02  4.3357491620945855e-02  3.4876007532118974e-02  7.5266092272833429e-02  3.0756287689237393e-02  3.1965532781440494e-02  5.0157791162530135e-02  2.4309654714135254e-02  4.2304283354230622e-02  5.3394064508944725e-02  7.5529830920211288e-02  2.5031055527308346e-02  4.2847745567020611e-02  4.2270130172252195e-02  2.7398663308426916e-02  7.6930673237144631e-01  4.4637381688554988e-02  3.7312497283857479e-02  3.5628157587825213e-02  5.4038132373782619e-02  8.4937282312968210e-02  4.0306388430452457e-02  4.2300074141642316e-02  4.4472446800336601e-02  3.0574929667476779e-02  3.9878052051818699e-02  4.7289120579271884e-02  7.5881350329627384e-01  2.7804469343520506e-02  5.2256657825979609e-02  5.2570650151944315e-02  8.1259646180378808e-01  7.1441559821590839e-01  7.2658008187064360e-01  2.0160048710522044e-02  3.5962902801149201e-02  7.5868482455880981e-01  2.9094488202335726e-02  3.0432987919884597e-02  4.0531124872142735e-02  3.9911270928042204e-02  2.6011697977254420e-02  7.2232517044229305e-01  2.6219556775236311e-02  5.2380759586366905e-02  9.0938057294243743e-02  2.2807888784607790e-02  4.1027394385880024e-02  4.2954786689010351e-02  2.9747458621596050e-02  3.7543969951291237e-02  2.0531707847199269e-02  3.4575725369483841e-02  7.8216364797779170e-01  3.4151396767967218e-02  7.8101973261189050e-01  8.2070356558900692e-01  3.2636338916611746e-02  7.0726685642070708e-01  2.5251262571263269e-02  3.6153177993521815e-02  2.3888835947746805e-02  3.1194250971752921e-02  2.8982606076402496e-02  3.0301537520084930e-02  3.3337625645274163e-02  1.0250927947837488e-01  2.7853132336762232e-02  3.6701689592079700e-02  3.9281193476475913e-02  3.7276814328124672e-02  9.3348844886245633e-02  3.1126789365150984e-02  2.7255435350675459e-02  3.5506991506045506e-02  5.4479103743807086e-02  3.7399839480024642e-02  3.3250401594094120e-02  3.1424785770485214e-02  5.0944553831271541e-02  4.1932456928998378e-02  4.2276384378708176e-02  3.0788924644614735e-02  3.4729572649811302e-02  7.6562423894114151e-01  7.9424765375521678e-01  7.7649379030110366e-01  7.8140390109841806e-01  6.8765526650277020e-01  8.0637722723261285e-01  7.1286039902852660e-01  1.2247871596533864e-01  6.9835611979693846e-01  3.1374806386768678e-02  -3.2115117637839549e-04  3.0049928265795056e-02  3.4009101945230637e-02  4.5628018395903504e-02  2.7012411497704145e-02  3.6233894111635592e-02  4.0118008357997947e-02  4.4625283709742371e-02  3.0884543764910979e-02  7.0468233977977801e-01  7.6688260295494071e-01  6.8583800462883227e-01  3.2959658070526261e-02  3.0249924568772252e-02  4.1684778142368727e-02  6.2285478063668305e-02  3.9658623089254726e-02  3.4862306577985280e-02  3.5947465636731693e-02  2.7645940576365234e-02  7.7932527741396607e-01  1.1195951052862890e-01  2.8114269414359752e-02  2.8017130509217166e-02  5.4731865107312691e-02  4.4113223285436792e-02  3.0504639527988098e-02  2.9549032470497026e-02  3.9781564208818308e-02  3.2163473761418440e-02  2.4335348479657577e-02  3.3505422550778083e-02  3.1482241844706181e-02  3.0719481237506709e-02  4.1772895279663762e-02  2.1125389905419758e-02  8.0122789266093886e-01  2.0236802581761054e-02  4.8179105797218111e-02  6.7754091655005033e-01  2.8294554750942350e-02  3.1957917519855834e-02  3.9051151110479090e-02  3.8765783371069534e-02  2.9567216807971551e-02  2.4635855622675965e-02  4.2648512104804893e-02  4.4676385198884137e-02  4.4238700080839147e-02  4.3774974638991590e-02  7.8712870965326120e-01  3.2685523940457366e-02  3.5945016799971634e-02  3.8201874153992600e-02  4.2082644925913758e-02  4.1661409706402773e-02  4.3812789534534886e-02  4.4162179406202137e-02  3.2613461565071770e-02  3.3011544917860527e-02  2.9524748518957547e-02  6.7693665973157280e-01  4.6376892730472560e-02  3.3847568042148529e-02  4.0093146462071176e-02  7.7252556154424656e-01  7.8665710849091508e-01  2.6247086185784186e-02  7.6034958339959124e-01  3.4699953129435281e-02  3.7501725619421611e-02  3.1551666606489247e-02  5.4722806638842061e-02  3.0532367236092962e-02  3.0425603069441694e-02  4.0056191971941692e-02  2.9214757865273687e-02  7.6620564018336823e-01  2.3210153689617763e-02  5.3683027731544389e-02  5.4627155613878806e-02  5.0073302491360321e-02  4.9895004580877429e-02  5.1451804292345554e-02  3.1175792186004483e-02  3.3123504916658941e-02  4.4905042396044821e-02  5.1452568845339587e-02  3.8785166323364657e-02  3.3032599101834585e-02  3.2044892294168299e-02  4.5890018574016950e-02  3.2529184713529211e-02  5.5032198702777493e-02  5.0301034310304409e-02  2.9656823837266581e-02  7.8458703195774793e-01  7.7317488919264388e-01  4.3670635218345993e-02  4.8225939866844550e-02  3.2074398298481438e-02  3.2788097483049769e-02  4.2263871603921269e-02  3.3464371321104365e-02  3.4647778346501623e-02  3.4005075590213776e-02  1.1086354143001470e-01  1.2244157027650351e-01  3.4776315831485084e-02  4.3596268993325749e-02  4.1585140293775885e-02  4.1794604814891306e-02  4.0197213521187582e-02  2.1306999986200705e-02  4.2806868264438934e-02  4.1744586385643108e-02  4.0263923011828892e-02  2.0744346398147807e-02  4.3838685636829529e-02  2.5599237558667443e-02  8.1892617127419387e-01  9.7465314692874727e-02  3.4261952341118083e-02  4.4644780237515065e-02  8.6131945217803693e-02  8.3242857280428739e-02  2.5068244925328751e-02  5.1309772753634408e-02  3.7887522447279547e-02  2.1853779972274973e-02  7.6326545600497597e-01  4.7439253261460083e-02  5.3672145769784400e-02  3.6319243102193657e-02  1.4085514871847724e-01  3.9152387929859110e-02  2.6054375804295985e-02  4.8595376066438954e-02  4.3564681000134206e-02  4.1298961946463847e-02  4.1548619812004930e-02  3.2832456382241901e-02  3.1631632039264591e-02  2.8090312836234407e-02  3.6294505732464573e-02  8.2605558972382531e-01  2.8190994402449085e-02  4.4553010877967696e-02  3.4673630394406602e-02  2.0160994911202518e-02  4.6769581066924505e-02  6.5376561802103506e-01  7.6959166669890944e-01  3.1211205824096113e-02  2.8284179971041889e-02  4.1075763894718079e-02  6.2121677861561933e-02  5.3401314384488446e-02  1.3573978771734063e-01  7.8127882199769438e-01  7.7382235344912509e-01  7.7028458428373325e-01  5.3899190959648159e-02  2.6772048026213760e-02  4.1852386957797839e-02  4.1384753173346174e-02  4.2515928376573392e-02  2.1694592684433245e-02  2.0466978490200589e-02  2.8047703026565261e-02  6.7405169702151313e-01  3.4510368038110445e-02  3.7557439537421133e-02  9.5057662349387853e-02  9.4275641604232283e-02  2.3849891432926505e-02  3.0219582171478760e-02  1.1607687349624915e-01  5.2073977252335306e-02  7.6682120035159762e-01  3.3058350564829225e-02  4.6935846498792178e-02  4.6279140070255805e-02  3.0371981265240693e-02  7.9434555194214396e-01  1.1243193502560959e-01  3.6203714165502332e-02  4.4692683855709424e-02  3.3188579656111244e-02  2.3178781634455258e-02  4.1785709222573873e-02  2.6922257104937373e-02  2.6933025280099228e-02  5.0258370953697604e-02  4.4056770831064261e-02  4.6000131242619570e-02  3.9420458499251319e-02  3.6023583647928722e-02  3.8097876971149372e-02  4.0155671446126029e-02  3.1866402058592536e-02  2.7052991935940320e-02  3.0978169184216465e-02  3.2811778265784346e-02  3.1140345324601280e-02  7.0728362987282167e-01  4.1469967828472815e-02  2.6958110753239006e-02  2.1076497885444564e-02  1.1937257388773775e-01  2.0771246432005085e-02  2.8919569684509330e-02  4.0223406285122498e-02  5.2328909915685798e-02  3.6219710297326527e-02  5.3616644935681697e-02  4.2248552875438231e-02  6.3798948277003242e-01  3.6730159936544278e-02  5.0123982269072831e-02  5.0971741546438826e-02  5.4053355076381308e-02  3.9497514372468318e-02  7.6386571845390039e-01  4.1376514711216443e-02  1.2236962344103230e-01  4.7841810700661895e-02  4.5505006222694010e-02  4.5602361646227510e-02  3.7676597076508819e-02  3.8452251632468966e-02  3.6565138020483022e-02  2.0548158320133448e-02  3.1949160176429590e-02  5.1753065747997283e-02  5.2220135926346285e-02  3.5992360776555592e-02  4.7851038509968205e-02  4.8351846289378581e-02  7.9447097308796233e-01  3.3067983428730907e-02  2.6162681055254672e-02  3.4092131044971087e-02  7.1588190812294636e-03  4.1105581190509763e-02  6.6828784457556667e-01  4.4190856589507298e-02  4.7405697860912296e-02  8.7900236017757136e-02  4.3135470992854176e-02  4.3658954378020226e-02  3.3607026588211353e-02  1.3650117722928798e-01  1.8701792698294514e-02  3.1221681553352466e-02  -3.4784841558363783e-02  6.3155322269944569e-01  3.0166198810402268e-02  6.5139888388879486e-01  3.0585174327430815e-02  4.3254474879186988e-02  3.7411499021190633e-02  3.4490326042439158e-02  7.8716160681750558e-01  2.7796699863143055e-02  4.1383055163686358e-02  3.8268765226521576e-02  4.9196678478901017e-02  3.2993282515273489e-02  3.8073399111734581e-02  3.7724000171895929e-02  3.4349391968355646e-02  3.4500808893601749e-02  2.9806827315368746e-02  7.6146809316630026e-01  4.4035890025343825e-02  7.3984746954833003e-01  4.3993615151246723e-02  5.3832474066842053e-03  5.2016265183655493e-02  3.4282523204380105e-02  3.1312202466054012e-02  4.1709815748533823e-02  8.2317528148030450e-01  8.0247647431271607e-01  4.0406032031731320e-02  2.0892580231571027e-02  2.9623529224746557e-02  3.8095354142048322e-02  4.4103296624783316e-02  3.1850984715753275e-02  4.1548433690968958e-02