<?xml version="1.0"?>
<VTKFile type="UnstructuredGrid"  version="0.1"  >
<UnstructuredGrid>
<Piece  NumberOfPoints="995" NumberOfCells="1854">
<Points>
<DataArray  type="Float64"  NumberOfComponents="3"  format="ascii">-0.9907245549550983 0.06476334454242257 0  -0.9859045253562049 -0.04184460550682485 0  -0.968961816913843 -0.147372378275419 0  -0.9401077169737738 -0.2502345060149584 0  -0.899699555911546 -0.3492759105711078 0  -0.8483309551530386 -0.4429234547915897 0  -0.7868668202100392 -0.5298425037738833 0  -0.7167489611334518 -0.6087140967466519 0  -0.6395609454199849 -0.6786038746735665 0  -0.5560103218169956 -0.7392359276995206 0  -0.4670206977213677 -0.7907820506785775 0  -0.3732664184794285 -0.8329704415051797 0  -0.2757182851215663 -0.8654929501464873 0  -0.1756029615946284 -0.888167964089117 0  -0.07378430414088674 -0.9006954997967063 0  0.02884791748030308 -0.9030279903369713 0  0.1310508758672968 -0.8947528007042861 0  0.2322475620110996 -0.8764025135056956 0  0.3309987264573052 -0.8479721693405842 0  0.426370983641717 -0.8098970480925666 0  0.517531156947263 -0.7621971188425173 0  0.6033610397995816 -0.7054267419664695 0  0.6833152155163155 -0.6397352533672692 0  0.7568432665110904 -0.5647539202116153 0  0.8221915796149517 -0.4811044975705099 0  0.8780400495235782 -0.3902581051179948 0  0.923297811706048 -0.2935250161599617 0  0.9572060516677701 -0.1922779706902356 0  0.9794351268817375 -0.08799721967775853 0  0.9896789804444787 0.01840701972217556 0  0.9875774701540527 0.1251498928670887 0  0.9733205220583077 0.2309357267086627 0  0.9471875639458538 0.3341718380048342 0  0.9096716183308533 0.433797357738106 0  0.8612152656497142 0.5287235070215688 0  0.8026789881011167 0.6176702536074211 0  0.7346064211461318 0.6997159659116793 0  0.658047427065109 0.7737589260934457 0  0.5738570706556726 0.8391064152637445 0  0.482924698936516 0.8952213991274806 0  0.3866492629095114 0.9413136209508236 0  0.2862741215139576 0.9769791141869917 0  0.1825593032517379 1.001756576972937 0  0.07650118407955316 1.015506586444092 0  -0.03033761693024233 1.017768275729134 0  -0.1367781321293121 1.008786395342159 0  -0.2416117779591365 0.9887413806604752 0  -0.3436324690051683 0.9576104977404352 0  -0.4418362096348439 0.9160736312112501 0  -0.5349260375725102 0.8644670307699541 0  -0.6221457412506163 0.8029381340946207 0  -0.7021969736412712 0.7325407879867635 0  -0.774076530305424 0.6539993103794384 0  -0.8370673100146659 0.5678975484413576 0  -0.8901449896787672 0.4754524839271509 0  -0.9325888476809253 0.3775730117021526 0  -0.9638033086369701 0.275779869075154 0  -0.9832416406944602 0.1711730064646872 0  -2.147271538729512 0.1007580091890766 0  -2.147271827294958 -0.1007588030405807 0  -2.128401077457009 -0.3013885042065107 0  -2.090824964108124 -0.499371536613795 0  -2.034877994310901 -0.6929646890184384 0  -1.961043928373482 -0.8804688348292502 0  -1.869979215763419 -1.060235319286279 0  -1.762482405609901 -1.230684676991311 0  -1.639494546331967 -1.390318636058203 0  -1.502099537846937 -1.537734433798574 0  -1.35150237736816 -1.671635675847652 0  -1.189030650817482 -1.790848418623551 0  -1.016107212190971 -1.894320912257615 0  -0.8342563844029384 -1.981148360641666 0  -0.6450717254795342 -2.050564313211996 0  -0.450220954062527 -2.101959765012702 0  -0.2514107766932782 -2.134883044831133 0  -0.0503937195937403 -2.14904473786227 0  0.1510679406680013 -2.144318963405277 0  0.3512016271997707 -2.120750793386514 0  0.5482486940058712 -2.078546765726891 0  0.7404778112872038 -2.018073026070096 0  0.9261996764334429 -1.939867676489782 0  1.103781627199724 -1.844611046493383 0  1.271663927994315 -1.733146180326243 0  1.428370761634389 -1.606451826433809 0  1.572525703806657 -1.465637214094215 0  1.702858586201619 -1.311943567099863 0  1.818227963967757 -1.146719822198374 0  1.917620458916203 -0.9714210977286805 0  2.000158132597435 -0.7875822357013008 0  2.06511995491558 -0.5968242054468189 0  2.111933250066996 -0.4008207708273849 0  2.140186922131003 -0.2012951734118583 0  2.149634255477598 -9.297373025880648e-07 0  2.140187144826053 0.2012944355911336 0  2.111933655319716 0.4008201989774176 0  2.065122092621885 0.5968247684515705 0  2.000158722698992 0.7875820589605091 0  1.917621346347319 0.9714209529009113 0  1.818230767162018 1.146720420785407 0  1.702858742595067 1.311942879133532 0  1.572526096532688 1.465637603819887 0  1.428370218011508 1.606450286413413 0  1.271663652701073 1.733146332860305 0  1.103781621704447 1.844611663167043 0  0.9262001474582094 1.939867809671387 0  0.7404784113072538 2.018074657990593 0  0.5482489614919821 2.078546844870345 0  0.3512016986770121 2.12075236890094 0  0.1510683313291999 2.144320946183025 0  -0.05039318818783241 2.14904298121715 0  -0.2514117650409673 2.134881786714461 0  -0.4502206983951642 2.101960064290102 0  -0.6450721067258369 2.050563055693313 0  -0.8342559306263209 1.98114885526576 0  -1.016108180164375 1.894322742984374 0  -1.189030217985785 1.790848893377303 0  -1.351504128289267 1.671636533489098 0  -1.502099693936784 1.537734645321707 0  -1.639494998247045 1.390319521451297 0  -1.762482821751374 1.230684890062064 0  -1.869981116730535 1.060236046825756 0  -1.961046783791935 0.8804685794527078 0  -2.034876097395208 0.6929643695783859 0  -2.090827021904893 0.4993704348624808 0  -2.128401428870513 0.3013895433783993 0  0.001143506003982154 0.062710750996033 0  0.2978959576213379 -1.499717819944038 0  -0.368233836452061 -1.484606225353732 0  0.9081729582909477 -1.239777728414246 0  -0.9251561361585493 -1.232381809056567 0  1.352022283233959 -0.7680773292479983 0  -1.388231512688938 -0.704972573046618 0  1.56772333119714 -0.07651410382374833 0  -1.571185197925871 -0.003064005343151231 0  1.496833277117729 0.5062666105450722 0  -1.476143620909075 0.5623312249474723 0  1.2061443035568 1.024538435669537 0  -1.160045333530035 1.077465840273069 0  0.03389562555270906 1.584556892710549 0  0.6171119817824237 1.461753505693708 0  -0.6129638497736952 1.457723983648217 0  -0.4967573383938609 0.038588803341625 0  0.4980017737724191 0.06626397376198113 0  -0.2248364997022672 -0.3658767039688893 0  -0.2547763484322498 0.4718120563792127 0  0.2433672188805178 0.4783773283818374 0  0.2535404277311644 -0.3560078777343513 0  0.6825079417160497 -1.620187943164387 0  -0.7528329392861602 -1.59140422784425 0  -0.04074152194693653 -1.736374118015346 0  0.8305313622879975 1.132929463055306 0  1.107581657975319 1.391724184763642 0  1.356424092086725 -1.149950860082196 0  1.660742625230909 -0.4838320250536895 0  1.302048074143554 -0.3511588735347889 0  -1.325756685221328 -1.115780318889474 0  -1.708421132266172 -0.4950156104427699 0  -1.363980262144667 -0.3255565207302533 0  1.766717708479655 0.2448707322523979 0  1.55274635786926 0.8796911371158626 0  -1.006826224451872 1.441810583135966 0  -1.512103161053224 0.9403057289072178 0  0.3750158975402609 1.747936044926444 0  -0.2927199749062643 1.765005069238035 0  -1.757572291450547 0.3204448420497062 0  -1.024695888440785 -0.854731736797947 0  -0.03352209367251157 -1.288921436130744 0  0.523733031383961 -1.187122292503168 0  -0.5729714428223586 -1.139548412142784 0  0.9863877123300612 -0.8710192046613344 0  -0.79279422804116 1.131767881822667 0  -0.2574273503438059 1.356742706026012 0  -1.157952926593113 0.7204200897962822 0  1.183138281651319 0.6339588795077186 0  1.160786541903184 -1.43497013136084 0  -0.5522447524292392 -0.291386924192295 0  1.309534175728662 0.2242349297259124 0  -0.573804959143196 0.3634099176272059 0  0.5726704754997201 -0.2596861376612841 0  0.2866383683278703 1.337800528036739 0  -1.838199367527057 -0.1744122259763818 0  0.418015750688465 -1.791971548887396 0  -0.4711686392739589 -1.785614142389142 0  -1.325393216680458 0.2447748315717309 0  0.5626276998878574 0.3969471910846747 0  0.8890853887651792 1.61739038412331 0  -1.052094961630838 -1.51447970773654 0  0.01716807992328532 0.7038449713312038 0  1.108904858828473 -0.5849549761466744 0  -1.140293589742692 -0.5301059758179936 0  1.585898003807188 -0.9575229620107516 0  -1.583277356894198 -0.9454920666600676 0  -0.818337721641576 1.673053344854209 0  0.01874338161851932 -0.5764017098941658 0  1.865814500147247 -0.08903878422080148 0  -1.279161418936938 -0.04625901198334715 0  -1.74322602049708 0.6843363650561654 0  1.276677698885716 -0.0638752191739614 0  1.740909480910347 0.6618479171991963 0  1.463266625110082 1.153793372306985 0  -1.414584553699271 1.211726543089404 0  0.983942767720238 0.841419667601716 0  0.04404694300676564 1.874955119649839 0  0.5453533201034254 1.181716536370988 0  0.2413643000387494 -1.219105988935387 0  -0.5019426637784926 1.194398215000898 0  -0.2866589891459939 -1.156116948365514 0  0.7169216686872485 -0.975304086014851 0  -0.9464183026643022 0.9000189498272432 0  0.01341387113601222 1.311257137466384 0  -0.7578422967800909 -0.9349868685067989 0  -0.555542142549976 1.71854189889119 0  0.6509450793417276 1.757623447065192 0  0.910234828071073 -1.498161664967176 0  -0.7338713043434835 -0.05376099917510079 0  0.7364638187431349 0.1466331457085936 0  -1.236816756873327 0.4806307276312753 0  -1.811676773064333 0.07520187769116218 0  -0.2537668093357863 0.189108936897938 0  -0.2497381050416878 -0.0884036080564214 0  -0.2981151446714648 0.7148284179842782 0  -0.3911586720743004 -0.5506095609607378 0  -0.003945895411629776 0.3426542144994988 0  0.2516784683060469 -0.07240605267784027 0  0.2555311843850673 0.2031845411614463 0  -1.600631952429228 -0.2476538962501794 0  0.6954541976914037 -1.369807250083863 0  0.2621903712109768 -0.6059978541696899 0  0.4490875237068733 0.6221490495993538 0  0.0113474920055106 -0.2159647873955738 0  0.8461243983993534 1.376883257336308 0  -0.7070994926911034 -1.348292797660321 0  -1.161630425730901 -1.296232221973194 0  1.737923945118993 -0.7386717251809543 0  1.349685473441136 1.36980467218819 0  -1.624892218184683 -0.7144444470711271 0  -0.3952380249015187 1.546951561164953 0  -1.201294253211614 1.309621994320737
[...]
<PointData  Scalars="f_2101-1"> 
<DataArray  type="Float64"  Name="f_2101-1"  format="ascii">3.5372497659095825e-01  3.5111982160055588e-01  3.3889514601048559e-01  3.4401432632145290e-01  3.2763905749936401e-01  3.4099928366777910e-01  3.5809942977136544e-01  3.9157327082696486e-01  4.5327398416397219e-01  4.6884963130081997e-01  4.4271696312655795e-01  4.5041575191647049e-01  4.5849526964693704e-01  4.7045379448112296e-01  4.4934442109549338e-01  4.7957647003837511e-01  4.4084225418454076e-01  4.3245305507671283e-01  4.6576252362483311e-01  4.3551844721826671e-01  4.6197581928684800e-01  4.6349723129838105e-01  4.3316536143293011e-01  3.6349413435275063e-01  3.6574835908461417e-01  3.2006609032057948e-01  3.4426512589794878e-01  3.3606203023590214e-01  3.4141431969846608e-01  3.5092951612609169e-01  3.5764634939310475e-01  3.4924062590503285e-01  3.6027520474431707e-01  3.6120503031692575e-01  3.6814012226634379e-01  3.8275717102825191e-01  3.5942645928156747e-01  3.8700884040267525e-01  3.7864729352062715e-01  3.8394905194333451e-01  3.8270959258963211e-01  3.9456642324870034e-01  3.8596241208830817e-01  3.8565536773168674e-01  3.9781031295052549e-01  3.7195644872394279e-01  3.8032349767601181e-01  3.8743805222363437e-01  3.8411065125874000e-01  3.8041189462751601e-01  3.8104011953038880e-01  3.7841592256837775e-01  3.6558337157198867e-01  3.7224654625884240e-01  3.7396315105167216e-01  3.5254130555611723e-01  3.5465508877324975e-01  3.5253883638586930e-01  -5.4009515707560803e-02  -4.3513466661289454e-02  -6.6292128511724127e-02  -1.0348170362805527e-01  -4.5190672762956283e-02  -1.1676129221383973e-01  -9.8853154948723682e-02  -3.5751339775315853e-02  -4.1517649717442359e-02  -2.9407407466518660e-02  -7.0586769690263548e-02  -8.0213676799000180e-03  -6.0818012013160047e-02  -4.1648737388287711e-03  -1.7038059020135731e-02  1.4061631044352621e-03  -3.9486397200791676e-03  -5.7170334508459472e-03  -5.7509883911155912e-02  -5.1418522287695036e-02  4.1758750946951423e-03  -5.5410880862396907e-02  -5.2346478701600944e-03  -7.1599859883172204e-02  -6.5750218882388356e-02  -2.1630971288277925e-02  -2.9708347628599339e-02  -8.1506794258188908e-02  -1.0981509582980684e-01  -4.8041436863322275e-02  -1.1840497449005655e-01  -1.1062324749437286e-01  -1.1282716307954938e-01  -1.1005148066344107e-01  -5.0380955512859697e-02  -1.0390076678056082e-01  -1.0172828650323595e-01  -3.3639298488907302e-02  -9.9934092974241190e-02  -3.2762945777152060e-02  -2.7431974231290391e-02  -8.5171345850567598e-02  -7.1327388222030197e-03  -6.9664383526227627e-02  -6.4235085559580130e-02  -5.4663809055050805e-02  5.4255873544013346e-03  7.9158626806329662e-05  9.6787548877117369e-03  1.3082951054464631e-03  8.6852211046148080e-03  -5.5308652868396403e-02  -3.5675400677532366e-02  2.1231388231588637e-02  -4.6619149691635275e-02  8.3759421742298501e-03  1.3853727329354266e-02  -7.4563864215795991e-03  -7.4085833937650135e-03  -1.8882059987930553e-02  -1.3468902113531842e-02  -2.3955189140291582e-02  -3.1021907559434674e-02  -3.1346061564746418e-02  -1.0063893753136476e-01  -4.7066193725772622e-02  -5.3329760589569161e-02  8.3629264795993319e-01  6.9716100784546514e-02  6.8282882757669403e-02  5.4861034628973786e-02  5.3787542324162455e-02  2.6451175662492696e-02  2.3465934765493215e-02  2.1282936157872516e-02  2.2714568490806900e-02  3.5204350101794429e-02  3.7677495394032028e-02  5.4398539416022587e-02  5.7209551003331929e-02  7.8065331229759241e-02  7.2196614949549223e-02  7.3037819499528464e-02  8.2081891380577265e-01  8.1944629593224649e-01  8.8410160818240258e-01  8.0646123436432682e-01  8.0524468720939102e-01  8.8225416381484867e-01  6.2275852994465211e-02  6.0214638569596579e-02  6.8908010923355426e-02  6.5706527633882045e-02  6.1551175217092031e-02  3.6351738334750777e-02  1.8748330075412364e-02  1.2067399158743051e-02  3.6317915582817752e-02  1.7885874256571937e-02  1.5907075588898274e-02  2.5335230765993567e-02  4.3098393065783988e-02  6.4953523742124680e-02  4.6012057433100016e-02  7.4440596119501351e-02  7.5293053473601310e-02  2.7368563844594660e-02  3.4797753618702666e-02  7.1637138896966004e-02  5.9825689821722788e-02  6.1397998501181487e-02  2.9595280964889264e-02  5.9285916643667336e-02  7.6021395291558574e-02  4.8924931544841850e-02  3.7950094034369497e-02  4.6599702981531856e-02  8.3600949555241200e-01  2.4701993904842186e-02  8.0130919209376228e-01  8.2774322651671850e-01  7.4087240960004311e-02  1.6400884170768126e-02  6.4638532504392873e-02  6.2700114345153768e-02  2.8548450474321845e-02  7.9827027843614096e-01  6.6549317111192705e-02  5.0505174664652729e-02  7.9582059615139111e-01  1.8454928369833500e-02  1.5344294791941345e-02  2.4844672278314012e-02  2.4016937634931467e-02  6.6759168035970068e-02  9.1291709558265222e-01  1.7304443047187146e-02  2.8150361934665559e-02  3.4353432830491276e-02  1.8387359597581879e-02  3.3455997730042118e-02  4.9252426845562199e-02  5.1769833185578602e-02  5.2678569000114084e-02  7.4320237690519861e-02  7.7965803955649129e-02  7.4614372657732450e-02  7.6365855821125733e-02  7.2546790713636830e-02  6.5910241055625082e-02  5.7618114114106340e-02  8.2015747354022603e-02  7.1155305750815662e-02  7.2752137845899484e-02  6.9195182193613453e-02  5.6341151201030074e-02  7.8656936990424187e-01  7.7445082342587512e-01  3.7217508850048590e-02  2.1741370028689967e-02  8.2246366823521477e-01  8.4622750733874241e-01  7.7951907431361678e-01  9.0388864228854893e-01  8.1592216439543164e-01  8.4479007030559994e-01  8.2143669758380389e-01  1.9575544228889897e-02  6.2496690890354985e-02  9.0267267614711988e-01  7.8475921505628654e-01  8.6670967701291890e-01  6.8009334405212687e-02  6.1808714403200307e-02  4.5580268423957224e-02  1.7098733137401810e-02  5.2964179853423582e-02  2.0544746738305891e-02  7.6071896687125121e-02  5.9263135688732808e-02  8.8272778722951228e-01  6.8716825180464403e-02  7.1076599201695900e-02  4.3315910068478708e-02  4.3711788391947178e-02  2.4492104562447329e-02  1.2386190211249974e-02  3.2623922866046380e-02  2.8922410191086753e-02  6.3623626111297779e-02  6.3820141907287867e-02  7.6861281116063551e-01  7.9444561281868997e-01  1.8658881503656587e-02  4.7017363244714963e-02  5.4187918134857772e-02  8.0273935606692848e-01  7.6225961805658971e-01  3.0839721968641542e-02  2.0765057363104203e-02  7.7731115119287778e-02  5.5436599146932018e-02  7.0624012656801044e-02  1.7789640314052994e-02  4.0742758442280785e-02  6.8120945319247436e-02  2.1932089720419320e-02  7.6998538113113704e-02  6.7171889533121532e-02  3.1603640000720509e-02  9.0488291826606848e-01  4.5288000416789237e-02  5.8604555936484233e-02  3.6010156525938170e-02  4.8484811058542569e-02  1.7755495285866819e-02  5.7243663430844888e-02  1.1758530262351062e-02  2.7763497837324326e-02  1.2846741048348547e-02  3.4094898890609189e-02  3.9576537737357052e-02  6.2693664714873976e-02  6.4940162339315724e-02  5.9429454646984486e-02  5.2680431894578272e-02  5.6020343811566710e-02  6.6822371607954609e-02  8.9957118600146241e-02  1.5870572202179835e-02  6.5117630398135035e-02  6.6915155851834759e-02  2.3178034503309762e-02  3.5743307995890823e-02  2.6151388318656550e-02  6.9533048674457254e-02  6.3671684069831619e-02  7.0483096827332337e-02  7.2247915389497361e-02  3.0923972860694919e-02  6.1228198129364100e-02  1.7668008856029142e-02  7.6903507329157295e-02  1.3889699956579923e-01  1.0469557890009683e-01  6.0762758182740510e-02  6.5401805524547871e-02  1.1111489149589850e-02  2.4128079947649917e-02  4.3980443444570638e-02  5.1392703108574869e-02  2.7114578276582067e-02  3.1754609855168349e-02  8.1704244465998624e-02  1.8973854879266807e-02  1.7867873591806270e-02  3.6074556905823840e-02  5.7206465265308648e-02  1.3233132413320262e-02  7.6347730970028657e-02  1.8843861598996030e-02  4.2182982484470943e-02  5.2902264993010421e-02  5.1198051789880759e-02  1.3577652010497179e-01  3.4821397287316432e-02  2.2790463663013780e-02  4.0894911477280270e-02  4.1033446519753144e-02  4.0703367036093535e-02  5.2996676265396524e-02  7.3824408548458259e-02  6.7862424441064911e-02  5.6987825306945614e-02  1.0978535021787156e-01  2.5983727898049581e-02  3.3047341795174615e-02  6.9810426791007268e-02  8.3759759496000574e-01  1.3303094569143398e-01  7.6255442203088622e-02  7.4267232201961117e-02  1.4076469443485720e-02  8.1043274289156852e-01  8.1113885431988764e-01  2.6973642893147725e-02  8.0529371691935103e-01  6.5346657566947150e-03  5.8500637125762291e-02  8.5671037974438247e-01  1.3283778401956692e-01  8.9439365888610720e-02  6.0599150590238210e-02  1.4019037207885515e-01  1.0611160699656927e-01  4.9249090734909365e-02  7.2873739389110348e-01  8.9051026784357901e-01  7.2007205813828981e-02  5.2748690402163859e-02  4.9084136995155361e-02  7.9954429356710988e-01  6.0473529968621950e-03  6.3249114281363678e-02  7.5897650093021918e-01  7.8193128804693868e-01  1.1905157173434043e-01  7.4062256171623397e-01  7.4515647681618336e-01  7.7910027749868216e-01  1.2393831541415272e-01  8.8177935791535642e-02  1.3142837043993888e-01  7.3992392301802146e-01  7.4052394071351635e-01  2.2980651663664583e-02  7.1233515146240128e-02  4.4010740177210080e-02  6.2393806380930346e-02  7.9364633255020411e-02  1.7525617719660262e-02  1.8525079311038230e-02  2.9920559709688366e-02  7.6901627689759067e-01  7.4065106868779773e-01  6.8335525803886160e-02  4.7955386510990752e-02  5.7312067054858001e-02  7.1202153318676825e-02  9.7341227983744588e-02  3.8933858962312363e-02  1.6592672893374169e-02  8.1030739132706620e-01  8.6168057381365892e-01  8.9384362489901348e-01  8.2111935745923759e-01  8.6344877279849908e-01  1.5086370578072696e-02  2.4058759892724366e-02  6.4103119271273379e-02  2.7634796373628222e-02  4.5003512687256816e-02  2.5306813632846911e-02  8.0579220787003103e-01  7.1183281827122835e-01  8.2640409275753890e-02  7.1990701374447919e-01  4.2035759993136988e-02  5.7796386644153423e-02  5.9484703594601909e-02  3.3389411175751185e-02  9.1665643498351546e-02  6.0319575814951024e-02  6.0375498679191064e-02  9.0477484470919978e-01  5.2601426268549696e-02  3.9204372740473635e-02  5.7235265972098527e-02  2.0698497414666638e-02  9.5873065721539929e-03  7.9798885572917675e-03  5.2402943432877810e-02  2.0559104734352511e-02  2.7493544735558671e-02  6.4260621626929762e-02  6.9957778145492241e-02  7.4447887330124127e-02  6.5914746359178683e-02  4.1417458118878113e-02  7.8252159987853898e-02  8.0085104316501121e-01  6.7219459678280649e-02  8.7885851932618797e-01  8.0874965948674293e-01  8.1522612702627306e-01  8.2506984325091925e-01  8.3529621815131772e-01  8.5068206040462802e-01  8.6484835043945685e-01  5.2160690172880664e-02  8.3685920828707017e-01  8.2998541924863334e-01  6.2970530107492123e-02  2.8631497616733906e-02  2.0061377358508995e-02  1.3302693577245719e-02  6.2092460303616114e-02  4.9693140124243071e-02  6.8661682062922919e-02  5.9128034368928030e-02  2.2600215033366941e-02  6.8111947918714624e-02  1.1593158626475626e-02  6.5146046430317198e-02  6.7534742707266712e-02  1.0735190007326539e-01  1.9332717184135203e-02  8.4380079674818076e-01  6.8834613873847691e-02  8.8361366941413033e-01  6.5154497851585724e-02  3.7736666343510770e-02  7.9675587961803115e-02  7.1404219956302806e-02  7.9891747549371717e-01  2.0530940976722138e-02  1.0711117077236819e-02  7.2988536094254236e-02  1.1459075864694153e-01  6.5188705528962831e-02  2.6017868916657489e-02  2.9917566862246794e-02  8.0125748562574117e-01  8.1493312721822253e-01  8.2465785105468559e-01  7.7134340740464782e-02  1.5233453096604838e-02  4.9156411524559809e-02  5.6401848706267112e-02  6.4526718513009479e-02  2.6826424775721367e-02  5.3512064683828763e-02  3.4844440278636646e-02  1.2267786002086799e-01  8.3412331479804303e-01  8.4922530731728696e-01  6.7916439095072209e-02  6.9493817693531357e-02  6.9946280522927007e-02  1.8835550565176898e-02  1.8946706678415796e-02  5.5590850911482637e-02  1.5240928632860395e-01  1.3256471144820248e-01  5.4612373389734688e-02  1.2089365177103861e-01  2.9047024688821192e-02  3.4895901747849456e-02  3.8912225230420011e-02  5.3122879648691987e-02  4.5327392853356928e-02  4.2781359696504255e-02  4.1008769233562718e-02  7.2503839850150992e-02  1.3368802665488405e-01  9.0205837805128164e-01  2.7086731460594364e-02  6.8289428669131486e-02  8.3149771117222271e-01  8.6047078248610209e-01  6.5138597993351061e-02  1.2385474385267548e-01  6.7784178363200209e-01  6.3890575012084713e-02  6.1562769511354046e-02  8.7298945701083519e-01  1.0185653752508154e-02  7.9885893400074526e-01  9.8031746997234367e-02  8.1036912468794620e-01  1.1723117088112865e-01  6.6524072747680141e-01  3.9661137576813943e-02  5.3739974919337651e-02  6.5623404049642550e-02  4.8909573539219701e-02  5.9622303872857219e-02  7.1681087539162774e-02  6.6862713176759847e-02  -1.0710654308822183e-02  6.7371502273966433e-02  6.0885348145072481e-02  7.6877016599411527e-02  7.5758521600805706e-02  2.9841283883427203e-02  9.0390028981100168e-01  5.6433095171926080e-02  7.9050337215571187e-01  6.9037610422261766e-02  4.0896542122526282e-02  6.7227022736419395e-02  7.1479559525878866e-02  1.5530888203353561e-02  1.4484308319059164e-02  1.4949975618969069e-01  7.5598389214067530e-02  6.6056209923630038e-02  1.3555205335261510e-02  3.3793425618109586e-02  2.6965153105141512e-02  4.8907889983771005e-02  2.9060328823664345e-02  5.8708742994403006e-02  1.2501039052402583e-02  1.9097948892496490e-02  1.9643411048202743e-02  7.3801392287594636e-02  7.3379263050446647e-02  3.7582332987932919e-02  1.8861802490441476e-02  2.5742003317380194e-02  1.5399882976714581e-02  1.4858893063769854e-01  3.1089738482835385e-02  7.2760653649885154e-01  6.9551269277563388e-02  8.1897128160759647e-01  6.5146802536910270e-02  8.9824733667831447e-01  5.5951900758705465e-02  4.0186900483882265e-02  7.9883590255641390e-01  5.6197876521678319e-02  6.5721530564646147e-01  6.7375208191377531e-02  7.4868257396052218e-01  7.0567620514138812e-02  1.1506556819258187e-01  5.8369372037839339e-02  5.8599033436144032e-02  6.0759419446772975e-02  5.1340558777389397e-02  2.9655786318315155e-02  3.6960052920201936e-02  4.5191893313633054e-02  5.3333985821071676e-02  3.6260223394274656e-02  8.0996302734870854e-03  2.3751276100614501e-02  8.2129263153873888e-01  7.0549187840172264e-02  7.5255817599778629e-01  6.7892647308205711e-02  6.3465110542919512e-01  8.1397514660382564e-01  4.8101191709382658e-02  2.3822604401224686e-02  6.5282725474605729e-01  6.5192286457483872e-01  8.0849294184324516e-01  -1.4050495097120702e-02  1.2891670759696100e-02  3.6021016566076654e-02  1.4736813929771459e-02  2.0723713885166618e-02  5.6422361839454441e-02  3.2213094585283930e-02  7.9505809724112175e-01  8.1278971478156270e-01  4.2019044570694997e-02  1.5211353632462235e-01  1.8748162439592181e-02  2.4616567698037915e-02  2.3292078700449761e-02  6.4510729744092610e-01  6.5274920485938082e-02  5.7790197141242367e-02  6.3112221801003524e-02  5.3258550554575082e-02  6.9324287525505637e-02  7.7821871103240170e-01  8.6156748337039657e-01  2.0614076448491368e-02  1.7363365618130816e-02  6.6294773884781433e-01  6.0896715473079614e-02  5.8795458792678071e-02  6.1898514251707663e-02  1.3179451702195175e-01  1.8989857657683976e-02  1.7078404418865246e-02  4.6070843634925397e-02  1.9631813290988887e-02  1.9911011997658053e-02  7.8374338669698965e-02  7.5046153417265629e-02  6.5250217167841004e-02  4.6469929429443495e-02  4.8151896365673214e-02  4.0608589853703699e-02  7.0371776014628615e-02  2.3698676208321070e-03  8.2258183430218790e-01  5.1705089400000369e-02  5.7850602320814147e-02  2.5001652005225403e-02  6.9388908736294386e-02  3.6541321194828794e-02  3.6930663706642164e-02  9.0987426608054089e-02  7.0471920418511053e-02  7.5779867076131713e-02  3.1378685072038552e-02  7.1330137947520147e-02  7.0246746436157123e-02  1.6120599172047032e-02  6.4695590162703154e-01  6.5666012215274272e-01  6.8702000796015295e-02  8.3977535223753663e-01  7.6785854609175377e-02  6.2493067978307615e-02  7.8948773392668636e-01  3.7642644067942127e-02  -7.9460071962124748e-03  4.5836658634684536e-02  1.4665210065936743e-01  8.1987322781199620e-02  3.5285509733284481e-02  5.9641134284580413e-02  4.6982138366118649e-02  5.0301210453456785e-02  7.6424420244291469e-02  9.1616075554121534e-01  6.0285292485289348e-02  6.7493064009842452e-02  6.9634122510544544e-02  2.2786552036393067e-02  3.2725328671319054e-02  -2.0937128721156069e-03  1.5418578276698924e-01  2.0626922489450059e-02  6.6596290875657618e-02  1.9811964565815490e-02  1.7567423581101307e-01  6.1182475526000479e-02  7.3521481851463544e-01  5.0319920317943134e-02  2.2485553304472262e-02  7.2819311175239168e-02  7.8260997722624892e-01  3.1099228549830847e-02  6.5159516206695312e-01  7.8944159134680492e-01  4.2871019230212283e-02  6.2878921953657060e-02  6.0302081894079214e-02  5.5211303593749705e-02  7.5826070392065931e-02  7.4755326683084378e-02  4.6025685244504913e-02  5.1103622000802450e-02  2.3854289892241642e-02  1.8981913454486736e-02  2.0196208003689167e-02  2.0074241668432687e-02  7.5362370389014377e-01  3.2420687680223916e-02  5.3877040640207728e-02  7.9979127929772087e-01  1.6969431039592028e-01  2.6145220064999589e-02  2.8373611306447589e-02  3.1792595575872634e-02  2.7052641555998781e-02  1.6162232132674856e-01  7.5003271301512367e-02  3.7135038743767362e-02  8.2926297063998022e-01  1.6191644864274554e-01  -2.1192697298076490e-02  1.7947769282538550e-02  1.9743805731877791e-02  6.6614739423864880e-02  3.2931621333059109e-02  8.5744306844783202e-01  5.9005660527505555e-02  5.4741860913051124e-02  1.8192703441935976e-01  4.5379808096066232e-02  2.0911014279204783e-02  7.6245324501014788e-02  6.7761949561843837e-02  5.5322142597783348e-02  8.8356195979816966e-03  8.6553538900160064e-03  2.5332062258909879e-02  3.5540423136918270e-02  4.9494228046921163e-02  6.7332391715220111e-02  3.9595157781117177e-02  1.9442084575202070e-01  6.4062887952029446e-01  4.5679420383286706e-02  2.9509577918104161e-02  3.3996155317060094e-02  3.0541810439156256e-02  5.7048149987860584e-02  4.5318088441167220e-02  1.9214707437571078e-02  2.0428984947468424e-02  4.1306885892233421e-02  5.3229114173528450e-02  6.5397523849705361e-02  9.1675127048509397e-01  1.7367014716567559e-02  5.7976275877776921e-02  1.9999996729384720e-01  1.9090718537115421e-02  6.0907967180457967e-01  4.2463850200882003e-02  6.1821015202985097e-01  4.9433085285872841e-02  8.0959006396943767e-01  7.9305612258594071e-01  7.9441805975542545e-01  5.4296239136378259e-02  4.8409998441822186e-02  8.9981970816578105e-01  6.2837054072560716e-01  8.0406357767950321e-01  4.8256769964490451e-02  7.6531478281988252e-02  7.6267384247602446e-02  7.7801633703646234e-02  7.4311562503460681e-03  4.1337427395377949e-02  4.5158681418335865e-02  4.6586067649117650e-02  8.5287523319397488e-03  1.1714239767883952e-01  7.6884544631072776e-02  7.5138450120171840e-02  7.4722916999274538e-02  1.5849376499862511e-02  1.0526039087409378e-02  2.9483978380025685e-02  1.0639381901964473e-01  7.8931417774402568e-01  8.0596451871028207e-01  2.9964834580974445e-02  7.0156115953581427e-02  5.8134602298419900e-02  6.2778163305635182e-02  7.7824719211482818e-02  5.6118556881579795e-02  2.0994249647615742e-02  4.1324448600074025e-02  6.3791414703795180e-02  3.1281307565234090e-02  1.8620448185221093e-02  6.8807217233526022e-02  4.0630950672242559e-02  2.3557798407543358e-02  4.1633128227668612e-02  1.7261018247297349e-01  7.1858446413371946e-01  7.7354678226917484e-01  7.7457778315799497e-01  1.2836011777865022e-02  1.1429324779626152e-01  1.4122887982527513e-01  6.6295671470513712e-02  1.2020599802664419e-02  5.5783015817047345e-02  5.3916382234081031e-02  6.0924105497743325e-02  1.9138368560422284e-02  7.3184973152386548e-02  7.2810843035958264e-02  5.9612826740000313e-01  6.7051947602434367e-02  7.3012985703119357e-02  3.1234758079255812e-02  7.1105312819820701e-02  7.1309864379198395e-02  8.9398015996906877e-01  7.8119372157366029e-02  2.4496594599967725e-0