<?xml version="1.0"?>
<VTKFile type="UnstructuredGrid"  version="0.1"  >
<UnstructuredGrid>
<Piece  NumberOfPoints="939" NumberOfCells="1746">
<Points>
<DataArray  type="Float64"  NumberOfComponents="3"  format="ascii">-0.9837257731798225 0.02036200888922914 0  -0.9763160618746733 -0.08646447714744587 0  -0.956651095329107 -0.1919442025014742 0  -0.9251590649334009 -0.2944300961886133 0  -0.8815099986755266 -0.3929368947821631 0  -0.8273457925842697 -0.4851317829919514 0  -0.7641821701735474 -0.5691113146009312 0  -0.6934598606180508 -0.6444839329062427 0  -0.6166639877516271 -0.7106666762386609 0  -0.5343450951530843 -0.767909819604876 0  -0.4473266342594062 -0.8161744037060756 0  -0.3567125578849782 -0.8552106663740323 0  -0.2628789765196097 -0.885243580390468 0  -0.1659396811932815 -0.9060711087195178 0  -0.06748393720983166 -0.9174627754440932 0  0.03173352876715828 -0.9193189258420404 0  0.1308139140117734 -0.9113302366273996 0  0.2281285571319204 -0.8939548154584462 0  0.3232635939814795 -0.8671630679323039 0  0.4155156238643306 -0.8311578795718005 0  0.5041348536538597 -0.7859840916414094 0  0.5881204148156833 -0.7319158506906089 0  0.6664595956598339 -0.6691300344310189 0  0.7394104106743885 -0.5973339965727467 0  0.805629456895675 -0.5161634627181466 0  0.8632046363124148 -0.4266688994023011 0  0.9107194302216871 -0.330048168896289 0  0.9466453663328169 -0.2287904283519846 0  0.9706089683528785 -0.1245314109855913 0  0.9822548137911262 -0.01780905949606148 0  0.9814587793848277 0.08947054017201066 0  0.9683816778925597 0.195661387167469 0  0.9433332860243845 0.2994288447818568 0  0.906484926964619 0.3999968060719467 0  0.8588892621090054 0.4953880845214981 0  0.8003837198981898 0.5851605743649309 0  0.7325306618605949 0.6677205580886171 0  0.6559913892475219 0.7423509318043908 0  0.571801251999951 0.8081413139378573 0  0.4807634454988167 0.8645783694694356 0  0.3843364777312769 0.9107918298483947 0  0.2835531378055359 0.9466760204788417 0  0.1790643364558161 0.9714115449240776 0  0.07280682006096614 0.9848519052726569 0  -0.03422895055400711 0.9867316814445064 0  -0.1410991795560156 0.9773257651561758 0  -0.2464897317472775 0.956629548865315 0  -0.3484745898299488 0.9247277294749875 0  -0.4465476488115991 0.8822411729684106 0  -0.5399180749395142 0.8291829250406978 0  -0.6265098097648967 0.7666978519504182 0  -0.7061348388858435 0.6951030405087124 0  -0.7771888190322436 0.6153585653123704 0  -0.8392302760484994 0.5278286234678344 0  -0.890707031753838 0.4346038096087136 0  -0.9316040968436665 0.3362565379605748 0  -0.9610696316108366 0.2335044598678104 0  -0.9785585451044218 0.1279092852034723 0  -2.097809739328666 0.1014707440860371 0  -2.097803138924606 -0.10147109989998 0  -2.078220514903351 -0.3034676538952958 0  -2.039230351623331 -0.5026253886550788 0  -1.98120018638916 -0.6970931974281859 0  -1.904672466381583 -0.8850512285876572 0  -1.810363341318949 -1.064749382978929 0  -1.699146392545425 -1.234502141848102 0  -1.57207001085096 -1.392730564522314 0  -1.430308360899119 -1.537951302109093 0  -1.275200432643027 -1.668822880348061 0  -1.108185619025317 -1.784105482023343 0  -0.930818032791306 -1.882733990938223 0  -0.744766224453152 -1.963779738909384 0  -0.5517529481909333 -2.026488781883838 0  -0.353590247532687 -2.070286188398096 0  -0.1521329729676732 -2.094747347592974 0  0.05074786340293393 -2.099651416943441 0  0.253158881335152 -2.084945826038465 0  0.4532046206456788 -2.050783436521362 0  0.6490173452235491 -1.997469892722679 0  0.8387696235449652 -1.925500056940956 0  1.020690714055727 -1.83555824573824 0  1.193082174020407 -1.728478426966605 0  1.35434004859043 -1.605261819401595 0  1.502946805065387 -1.467057751357902 0  1.637520821479171 -1.31515191784841 0  1.756804965065959 -1.150970885475883 0  1.859688261962378 -0.9760392234728518 0  1.945207564459174 -0.7919973737161257 0  2.012564935130206 -0.6005623635161574 0  2.061127799551743 -0.4035158132323722 0  2.090454934896158 -0.2027042755201121 0  2.100260422909421 -5.14702507350671e-07 0  2.090450399367801 0.2027038088646345 0  2.06112865040479 0.4035145248058319 0  2.012562284235021 0.6005583924958463 0  1.945209083280786 0.7919992795957356 0  1.859686040355371 0.9760383792588065 0  1.756802981268501 1.150966973614666 0  1.637523172037925 1.315152067745434 0  1.50294504885773 1.467059010475412 0  1.354339863206496 1.605264338923291 0  1.193085694492937 1.728484138330705 0  1.020695928418742 1.83556251032606 0  0.8387698736422995 1.925507248521083 0  0.6490160233990714 1.997465829687983 0  0.4532027764416225 2.050779888156956 0  0.2531587181273279 2.08494662244917 0  0.05075031189532588 2.09964683559701 0  -0.1521343455265286 2.094748571746606 0  -0.3535938327752941 2.070281304694299 0  -0.5517540784020866 2.026489150152609 0  -0.7447641163173615 1.963782338981744 0  -0.9308196754038783 1.882733491771218 0  -1.10818571723236 1.784109039282801 0  -1.2752013083977 1.668822864430601 0  -1.430314132259677 1.537956208461134 0  -1.572070853844975 1.392730506259749 0  -1.699144722322145 1.234498838782917 0  -1.810360096413037 1.064744359938735 0  -1.904675861795235 0.8850495632703158 0  -1.981202257795138 0.6970937176772023 0  -2.039227358261537 0.5026236463094834 0  -2.078221965491531 0.303460924379186 0  0.001774677098630293 0.05052361525385701 0  -0.03641831075910638 -1.517216662175628 0  0.5386274066736594 -1.423501275088852 0  -0.6067856334340173 -1.396496903085066 0  1.03941224100063 -1.120745486033033 0  -1.092806794351695 -1.070048822174127 0  1.410544268360877 -0.5971825496909614 0  -1.434180947804622 -0.5417187944901676 0  -0.6212980737327789 1.414941037586632 0  0.818474439591473 1.311163072780714 0  1.541881671801885 0.0577387057441557 0  0.0292944982431607 1.541085617906381 0  -1.51876675810355 0.2859081203618127 0  -1.113728085486737 1.075699347490558 0  1.258525496962364 0.902873670738836 0  -0.496252309013901 0.01377205751012272 0  0.4964416559494245 -0.003771361766470653 0  -0.2203358020775609 -0.3757385224530779 0  -0.2576983509392925 0.4484716685588544 0  0.2858174505190271 0.4312216850182033 0  1.359992909911838 0.46373944867544 0  -1.455839105903599 0.7535168998641586 0  -1.64551739636717 -0.1433290893627835 0  0.2388006480344103 -0.3843180131764352 0  0.400627099979607 1.344149306471986 0  0.6307753236926293 1.628183350727483 0  0.2921689313511476 -1.709782161380193 0  -0.3728172943815908 -1.693287762848473 0  1.403851971513119 -1.020456000208718 0  0.9169382586791756 -1.475048408881875 0  -0.9843457449621648 -1.429305239136262 0  -1.450898827399388 -0.9228167735778045 0  1.597848286471637 0.7343867334539717 0  1.706425077626263 0.379778210118702 0  -0.3350941938168204 1.683002976017403 0  -0.9926203620521628 1.431044593328844 0  1.191003006994829 1.271846709290554 0  1.724470731380997 -0.2574329995921077 0  -1.31622793870918 -0.04469009437297055 0  1.31928508393159 -0.2446026277001886 0  -1.240491647999902 0.4812234337032351 0  0.3066417536419489 1.743594235181686 0  -0.2658149573408348 1.319827562679829 0  1.069750005567405 -0.7643590628760647 0  -1.10898621111856 -0.7129889478523107 0  -0.2950333502006428 -1.237714807100392 0  0.2469470486108287 -1.24141089861083 0  0.02105715215816746 0.6521093953135816 0  0.6805899468411039 -1.102977775488301 0  -0.5761818441184513 0.3327380495793483 0  -0.5444165232853043 -0.3163834260839934 0  -0.7339931351227152 -1.070578117562765 0  -0.7765083163999648 1.066425858500947 0  0.9164915515242041 0.9720831099470811 0  0.5960550452298004 0.3099575345700681 0  -1.698644350323276 0.5530071581949834 0  -1.789817517741826 0.135572496396717 0  -1.067275901976311 0.7535850647797993 0  -1.429189685291397 1.072595658125519 0  -1.739153392066806 -0.5221319718902604 0  1.714010166346439 -0.6057577597858185 0  0.5483487321767472 -0.3235413800700487 0  0.00561911352551752 -0.5928178454954334 0  -0.1011445475953444 -1.806320037665621 0  0.6460769515006397 -1.702011232048912 0  -0.7777676151596674 -1.63578448883057 0  -0.04420193509552576 1.824704288264286 0  1.282988693120122 -1.281490816054647 0  -1.249244700679346 -1.314741729296447 0  1.118875953274975 0.6361575715710505 0  1.150781474681525 -0.4739594998051972 0  -1.223939946619887 -0.3295779746887706 0  -0.5008121807602405 1.15928465822475 0  1.829695726038223 0.08307255106364154 0  1.025424146717959 1.503323418762839 0  -0.7961785136517129 1.636609464895903 0  0.6559482715628858 1.081377308532248 0  1.259267438880964 0.02533758677097217 0  0.1207104489937089 1.266769258491127 0  -1.274072370943466 1.306856233614296 0  1.519451327079463 1.005116203819231 0  -0.02337464781630055 -1.199280726045411 0  0.01054062430983101 0.3342951151882274 0  -1.25824649690481 0.2138491484707694 0  -0.8744571810139143 -0.848542710954857 0  0.863500593878426 -0.9228586044085293 0  1.617938305449107 -0.8563305542441039 0  -0.729087644746099 -0.08907224377165295 0  0.7243148310137318 -0.1162568097208647 0  0.3274665131606115 0.6723412252657508 0  0.2375603630456476 -0.1043988860234253 0  0.2732100301303068 0.1626201163968003 0  -0.006633011622316281 -0.2142509071157898 0  -0.2416914133845821 -0.07766707010356864 0  -0.2297531137591989 0.1867622763418327 0  -0.2361611644350291 -0.6284954639687479 0  -0.3020487235836427 0.6865405565288946 0  -1.667241257786206 -0.773093641920502 0  0.4207968960740365 -0.546355464751006 0  -1.454642465947207 -1.172327513609808 0  -0.4828198322998952 -1.080646942531733 0  1.179051420079787 0.3042680089015383 0  -1.616790732607932 0.9302095234710672 0  -1.268884129894801 0.8965956749240692 0  0.3084860092598066 -1.472796004273314 0  -1.877950112645236 -0.1857592128375472 0  -0.5642387245278511 1.641288273601121 0  -1.469192598475296 0.5210438178058556 0  0.4350991203665053 -1.093386005144402 0  -0.5923969682329562 -1.784012089295717 0  1.515696972366435 -0.3833979542729538 0  0.1245437437412832 -1.876495735426016 0  1.154470300105509 -1.480693929597071 0  -0.3818354019208153 -1.458363836473376 0  1.421759790972819 1.2230602040954
[...]
<PointData  Scalars="f_1819-1"> 
<DataArray  type="Float64"  Name="f_1819-1"  format="ascii">3.4672381642473216e-01  3.4695604416914932e-01  3.3992689798765080e-01  3.4104723928009945e-01  3.2192360699334682e-01  3.6181941577276050e-01  3.7639852781095007e-01  4.3080943501909091e-01  4.6539315842896928e-01  4.5691424392447844e-01  4.6178546043520802e-01  4.6690562606438613e-01  4.5252915684876033e-01  4.6835605557610505e-01  4.6181319197862836e-01  4.7878114806395727e-01  4.4934871453245645e-01  4.5916586658673531e-01  4.6075182920434810e-01  4.6063033566527006e-01  4.7162804832619548e-01  4.5034687147303054e-01  4.4321403639473328e-01  3.9753440876180940e-01  3.6785235486872175e-01  3.4436876230574048e-01  3.4280231663442773e-01  3.4979518936040011e-01  3.4566084198735042e-01  3.5252203988978059e-01  3.5783607954821534e-01  3.5489744804613543e-01  3.5976527395192492e-01  3.6151574612702503e-01  3.7411107910346708e-01  3.6103250049850777e-01  3.8729563186504334e-01  3.7179794706118963e-01  3.8653859517800832e-01  3.9724326096209511e-01  3.8692233821093380e-01  4.0438031024288362e-01  3.8058983097796190e-01  3.9457434511209649e-01  3.8470970061182008e-01  4.0074207388881516e-01  3.8216961644749375e-01  3.8601455318898237e-01  3.9050336601697855e-01  3.8761953580261554e-01  3.8765917919504694e-01  3.7629800138849168e-01  3.7457707128183088e-01  3.6622279560408055e-01  3.7028988364059406e-01  3.5775739170423432e-01  3.6770169564982974e-01  3.5125568970982224e-01  -3.1734376444198957e-02  -1.0410206698539710e-01  -6.0475599401562441e-02  -6.2923904220912513e-02  -6.1598427622664986e-02  -5.9590963449545856e-02  -2.7205804578200172e-02  -5.3831533724105679e-02  -2.7584589588716461e-02  -9.1927957099893404e-02  -2.0778447391407578e-02  -1.6981632414202780e-02  -7.6159429166658844e-03  -1.2607954149868456e-02  -5.8944023779332499e-02  -8.5582972786880599e-03  -4.1169260053621551e-03  -3.1293182019101343e-03  -5.7299731785430040e-02  -9.7133524271338159e-03  -3.9589599695106824e-03  -6.5766718341818867e-02  -6.9522285649531126e-02  -7.4348880752284172e-02  -2.8432625143018978e-02  -2.1014793771431971e-02  -3.9076804433639298e-02  -4.1834044320946326e-02  -5.3128301149683178e-02  -5.4903986113286257e-02  -5.4774845724151776e-02  -1.0945971011902611e-01  -6.2683363417083054e-02  -5.2010869859776834e-02  -1.0757202393377174e-01  -9.8653624361008413e-02  -9.3113358503042351e-02  -2.8251481977925316e-02  -7.8227113033930998e-02  -7.7495273697031256e-02  -9.9538572338354007e-03  -1.2849261219767831e-02  -3.0378422091848802e-03  -1.6571643703504561e-03  -5.0803840945089643e-03  1.0080880113414925e-02  -4.8550301721477201e-02  -4.8844516610351836e-02  -4.6550452089362988e-02  -4.5288590618260967e-02  2.0668310216707196e-02  -4.3574928917159139e-02  -4.9631792975505164e-02  1.1084044080109448e-02  2.8973217655463334e-03  1.8542755884577770e-02  -1.0398333313605177e-02  -9.5199810222347889e-03  -1.2931551977082817e-02  -7.9928097481223523e-02  -7.1682313018711349e-02  -2.6345929750717419e-02  -2.8367567720179135e-02  -9.1057266704160048e-02  -5.1775385308637879e-02  8.4873019563381658e-01  7.1522118028970086e-02  6.6559622312082733e-02  6.4922583948272120e-02  4.7487767753666983e-02  4.3462971494441692e-02  1.9482033363051363e-02  1.8405177136001472e-02  7.4226520801728785e-02  6.9556207068975653e-02  2.2963432730389831e-02  7.9076324633923806e-02  2.9696241794383037e-02  5.9332464391798630e-02  5.1686250643277108e-02  8.3390243314733192e-01  8.3486725435718911e-01  8.9850231050945606e-01  8.1798051239271596e-01  8.1872774900459167e-01  3.5271978925620978e-02  4.4111540033088578e-02  1.9126092827498459e-02  8.9889989306562212e-01  7.5923108848405974e-02  7.2947899062399069e-02  6.7630419737324046e-02  6.6840910642674334e-02  3.0866947862076995e-02  5.5814244550244890e-02  5.3021433285750333e-02  2.6748250888854283e-02  3.9308908501243703e-02  2.8490748891707121e-02  7.7264846209319019e-02  6.6162430327079622e-02  5.9720388762579762e-02  1.6518208075344397e-02  1.5754912201656767e-02  1.0592916987666054e-02  3.5278935218889154e-02  7.6207896703910982e-02  7.8671840677505697e-02  2.5779782738119462e-02  2.1625723023262731e-02  6.9457797934490167e-02  6.9418114254456861e-02  8.0721936040450581e-01  6.5033846130251219e-02  8.1386150860953321e-01  8.5498955583444058e-01  5.9690066878422023e-02  6.4815063570029585e-02  5.5499863397594773e-02  8.0700944733891633e-01  3.2090474347544279e-02  2.1636767926988043e-02  5.4953352874938043e-02  5.0476487897437076e-02  1.4872628749877331e-02  1.5355174261229274e-02  8.5282402527606793e-01  9.2633830924317817e-01  6.6007631009544598e-02  6.1300451164011935e-02  5.7847810641158667e-02  7.5691330698526585e-02  3.9062804335552787e-02  4.1014631684411683e-02  5.2213908126144695e-02  1.6192191652980737e-02  1.3922955282581409e-02  7.7512935812294487e-02  1.9213750358959156e-02  6.3727799691016843e-02  6.9230745145777858e-02  7.3453981552486225e-02  2.3273808439494191e-02  8.7509647576061458e-02  5.5866216688603983e-02  4.6052188096746001e-02  7.8433071500513679e-02  8.2744417952749016e-01  3.1577407842877568e-02  5.6375170483318325e-02  5.5649731459122678e-02  1.9570616104954870e-02  7.9843271496813273e-01  7.9573817615218678e-01  7.8781223697955560e-01  8.6020716079991488e-01  8.3482519187238990e-01  8.7822231189923738e-01  8.5698524017985056e-01  8.3433530070435513e-01  9.2411174349271841e-01  7.8830103007966223e-01  1.6293210970195902e-02  9.0450661647868014e-01  2.8824385040740533e-02  8.0967151278155514e-02  3.9906912316251555e-02  4.1707152275108274e-02  5.1921976892542590e-02  7.0145662428009195e-02  1.2861467015179538e-02  7.4579261438148567e-02  3.7216111511353206e-02  8.0397594616012702e-02  5.9703884773590447e-02  1.7338431686407387e-02  6.4556146690080918e-02  4.5445828997134376e-02  6.8997748059715813e-02  5.0356731597015737e-02  1.7575753776898864e-02  2.3408378972205584e-02  8.0052048644354079e-01  2.9147134302010085e-02  4.3855632855575873e-02  7.7955209221959687e-01  9.0515373877588867e-01  6.6487126350134970e-02  8.0828087282694860e-01  2.9545290793525650e-02  7.8429065709783330e-01  2.3264288255861406e-02  5.7701106942350831e-02  8.7818918587589848e-02  9.2861055758376876e-01  5.9094281410064300e-02  6.6784380311232669e-02  2.5462314369180630e-02  6.0683533994118341e-02  6.9580704904812912e-02  7.8506398916376605e-02  7.3391314246324307e-02  3.5789484041547796e-02  1.4804232200328539e-02  7.7022835881782506e-02  6.8224315182105227e-02  1.3522412635513816e-02  1.0066899602530825e-01  6.3767810743523973e-02  7.3288825102707317e-02  1.0069873820650412e-02  6.0653402211643517e-02  4.9405012036306990e-02  1.8507000684555616e-02  7.1972429671328511e-02  6.7821782853763515e-02  3.2106816027111053e-02  2.2955310540208343e-02  6.9473835819989144e-02  1.1838191856905897e-02  1.5329741676714068e-02  1.9769786954819388e-02  4.5295258776360751e-02  7.8929028721817465e-02  7.7663505923600995e-02  3.1026976044180327e-02  6.4284676648423161e-02  3.4266121991932255e-02  1.7172985185895429e-02  7.0944752798267716e-02  8.6985779905771621e-01  1.1961227085443611e-01  5.7496766442100389e-02  8.2174357785447039e-01  6.2087519945209987e-02  6.0440666732124927e-02  6.9776468621232435e-02  5.5366738144772797e-02  6.7056223683872970e-02  4.3485960420002898e-02  8.6934096776349168e-01  4.8202755307999091e-02  5.0725397682579963e-02  4.8752938973482478e-02  2.2760174871500130e-02  4.3931056459127558e-02  9.0414584966083755e-01  1.9702261189795654e-02  7.0993544495497746e-02  3.6287252800677620e-02  5.8380477316578902e-02  6.9055422378786868e-02  6.2780804611066832e-02  6.0733545953196098e-02  6.4546099773229684e-02  4.2360848222293086e-02  5.7940048671344738e-02  3.5668450529643875e-02  7.6832949442159171e-01  7.9789783341907089e-02  1.4344711852531986e-01  6.1321176052303111e-02  1.1274399752727471e-01  1.4527559978450483e-02  6.6468284574663070e-02  8.6751254898146002e-02  1.5096535638621400e-02  5.2961683938153786e-02  7.6588260878767134e-01  6.6784392949165799e-02  2.8191742856657428e-02  5.3140621336877990e-02  6.3337052865731880e-02  7.0919222867031687e-02  8.2038915079529828e-01  7.3478688324656183e-01  1.2430284021749550e-02  7.7655605914467074e-02  4.5802099954501393e-02  2.9535797911375873e-02  2.5775569800830973e-02  3.1758714588119318e-02  7.6606154635952683e-01  6.4239685103651079e-02  1.3592333765822867e-01  8.1913566411914607e-01  7.6739495046660644e-01  6.1663397629952696e-02  6.8939836375065067e-02  7.5998949840472951e-02  1.6146184937176802e-02  7.5858666532234587e-01  7.4820841333864463e-01  7.3210390416439716e-02  5.8236473333350004e-02  6.0399762891783337e-02  9.0507115264652016e-01  1.2391884763564631e-01  2.1544667729022717e-02  4.7899271708079436e-02  3.5884097588437372e-02  2.3875699799877231e-02  6.7810223668122255e-02  3.4269021961336417e-02  2.5772148651357258e-02  6.7034850381308117e-02  1.5087355673513655e-01  8.1149949281665767e-01  8.1373353187741126e-01  6.5164689197037568e-03  6.8776960848745294e-02  2.7145980431201502e-02  2.2337840614410822e-02  7.1201419425053411e-02  3.2528287939556831e-02  2.5524016739869003e-02  6.6212072464195471e-02  7.4364149222932371e-02  1.5277822406222144e-01  3.8660089810389625e-02  1.8392379116916248e-02  7.3209427134902333e-02  3.8179782562722489e-02  2.2995625152853819e-02  1.2729497335077294e-01  7.7323645056829915e-01  8.1898954557600911e-01  7.7158790611146486e-02  5.6954882179508087e-02  8.2287964631357102e-01  1.8239835031080374e-02  3.0298520544357894e-02  9.6755497080173256e-03  8.9682849278563970e-01  8.3552268250989448e-01  7.0600175708062332e-02  3.6976105821142448e-02  1.7341837512976913e-02  1.8907387282526011e-02  6.0832867706476168e-02  6.0386118958525505e-02  2.0537758324388384e-02  5.4194639659531245e-02  7.8280417524605961e-02  8.5526230802160741e-01  4.2506982462401505e-02  7.2567424100351618e-01  1.5731057055292406e-02  8.1824697754359343e-01  9.2082479606383064e-02  1.4673808813215680e-01  8.0302937862296794e-02  6.6031956411430101e-02  1.1287742092367492e-01  9.3719090757917265e-03  5.5649970709326771e-02  8.4805152496804981e-01  7.1040696407004425e-03  1.3647191539362832e-02  4.2449857295188277e-02  5.2121835564422188e-02  1.8261999562759479e-02  3.2684409602851086e-02  2.8058828760098898e-02  5.5217492240600900e-02  4.3525181745216412e-02  4.8323072296182559e-02  9.1674623542220846e-01  2.7478051565481373e-02  8.3807329919206619e-01  1.8122930528003855e-02  8.4036403766933687e-01  1.2771937127137711e-01  8.3663795812365127e-01  8.4763681085974041e-01  8.6218586105190775e-01  8.2743266062685950e-01  7.0934074789267987e-01  8.2997959314066205e-01  8.4389576607965489e-01  7.8209394552149467e-02  1.2592670865365219e-01  9.2109684724466090e-01  8.7613438229577922e-01  7.5099535714110127e-02  8.9017732530501237e-01  8.9308814360904631e-01  6.7295554350524145e-02  7.4512970952503770e-03  4.5894526118939932e-02  6.3308857255040554e-02  8.1216884338863871e-01  6.7115315471137100e-03  3.7227169346226580e-02  1.2210722362198796e-01  5.6223151242801930e-02  8.2044426514855184e-01  8.2646242840249495e-01  3.2807953021842313e-02  6.0268465637036493e-02  6.6561916871152954e-02  7.9069681613348500e-02  8.3697754244006972e-01  6.3799487446472208e-02  8.4969454150298718e-01  6.9325144650394438e-02  4.4372351165429515e-02  7.5324550087641162e-02  7.1843922000511568e-02  8.1325301223290059e-01  8.3656499734686673e-01  7.4392155426888013e-02  1.5224469523268372e-01  7.4726432369948068e-02  3.6808562642159613e-02  1.4293586316102649e-01  7.8482369539015343e-02  8.2559658446477349e-02  1.6030975262709399e-02  1.3610151225496245e-01  7.0987829531391833e-01  7.3369201846767929e-02  6.7388557183543821e-02  4.2387109843026453e-02  8.7794214798189396e-01  7.0382538693054109e-02  2.4402510522406058e-02  9.2319633799814241e-02  7.2082659375691882e-01  7.0389141426770885e-01  5.0885003451651353e-02  8.0230717941771534e-01  5.3189876896968899e-02  5.8707473081991979e-02  7.2298739136645446e-02  5.1698454390534963e-02  1.5518535256790161e-01  5.8335456366504009e-02  1.1249654286341225e-01  3.9236331332720913e-02  6.6461499623191242e-02  7.4113799791352505e-02  1.1125046331940480e-02  6.5049108992226504e-02  -1.7686299180802507e-02  7.0408992324133030e-02  4.6786751636072016e-02  7.6751732237801143e-02  1.2411903975313525e-02  8.4682012375579596e-01  8.6170531344779033e-01  1.1135128529669636e-02  4.9118692911953810e-02  2.9201686978542078e-02  2.2495419954893920e-02  2.5193241714035263e-02  1.6070961782866888e-02  6.1930333216202706e-02  1.5165640280554080e-01  6.2460973346642926e-02  5.8163741476412296e-02  3.2051904011112395e-02  8.5367657453086843e-01  3.9467544409682150e-02  7.8928573394301427e-02  7.1426222489975835e-02  5.5973590657201817e-02  5.4166070308804222e-02  5.1028141804478566e-02  5.9503549132484776e-02  3.0568906473494997e-02  2.0183374245063633e-02  5.5960484000142204e-02  1.6937669524591364e-01  1.3788690537763023e-02  4.6406957651205678e-02  7.7858737721191978e-02  1.6468590359115562e-02  6.9382071968448672e-02  5.4369951717358513e-02  3.7950108965799756e-02  8.6708961437967158e-01  1.7951193950763000e-02  9.9111115856943696e-02  1.9783035806026087e-02  8.3378785066452021e-01  3.0985262471118800e-02  7.5402258201463429e-02  3.7498810850478285e-02  4.2840941057600071e-02  7.2689615417146428e-02  8.8338006191931884e-01  4.5013371508561745e-02  1.9427406435446017e-02  6.2183360400149330e-02  6.5138229595227892e-01  7.5024454035355098e-02  4.1829913425299819e-02  2.1878859092276100e-02  6.5207823934231759e-02  8.3059962549378563e-01  8.2123042581596639e-01  2.2175256928142803e-02  7.5070419377912523e-01  7.0281052091072674e-02  5.4538837382429387e-02  6.4108909109415591e-01  8.2600834871432138e-01  -1.2163085264386643e-02  8.8884629360097367e-01  6.2990106511880817e-01  2.4378302383094887e-02  4.4203800482810814e-02  3.1815723873764176e-02  4.5068886550330894e-02  6.6723634211529159e-01  8.0876368789691599e-01  6.8061990724262431e-02  8.1614750233924016e-01  3.5691397896014027e-02  7.0182002460747017e-02  2.1064013642878840e-02  4.1050694462373180e-02  5.1256781283786537e-02  2.5064248309024324e-02  7.7960095684375053e-01  9.1659131931520421e-01  1.3661519951097836e-02  6.3616010410900548e-01  6.9469989092486958e-02  4.2428220333623479e-02  3.7060842871915009e-02  5.7125493643995509e-02  8.3068119807089877e-02  4.1535748931334091e-02  6.1836216735376905e-02  2.6374164853660110e-02  5.0783100609651383e-02  7.1483759090557694e-02  6.8867999904440369e-02  1.5529208520152778e-02  8.0093536267952192e-01  9.1699571016818682e-01  1.6196649185140313e-01  6.9759360664947423e-02  6.7988227719438199e-01  2.9576992150890938e-02  5.9264958916560105e-02  6.6684440590567981e-02  6.6751440920706451e-02  6.6156372108831074e-02  5.3736172974946615e-02  5.7460692995904901e-02  7.0398388142880727e-02  2.5913362363716073e-02  2.5774189231873020e-02  8.3464421582946466e-02  7.1550416706547271e-02  2.3614718787607146e-02  6.0595875569306665e-02  6.5780979883584434e-01  1.8361630119069688e-02  8.7622553566756123e-01  6.4924378708421238e-01  3.0890066416160170e-02  3.2454111209781325e-02  1.4986563856217749e-02  1.7477857948188014e-02  1.7405270146779627e-02  6.3596060079399341e-01  7.5089585643634479e-02  2.1362539491619974e-02  6.6099564948060380e-02  1.7211849108245372e-01  8.0371930908804634e-01  3.9644759589336713e-02  1.1727674176321924e-01  -2.3609159606018448e-02  3.1879052166667164e-02  1.4555325575341163e-01  7.7408954476814984e-01  5.5688396761194796e-02  4.4470042759532272e-02  5.0030667198074398e-02  7.9318220478156964e-01  4.1998832654898649e-02  6.3159481012403040e-02  5.2489743832748771e-02  5.9994428521239700e-02  3.9962607585138608e-02  7.9535907210626658e-02  4.2292618117411029e-02  4.5418328626423504e-02  6.6048514699478464e-02  6.4939373240139930e-02  5.8354527219575056e-02  2.8747174692984333e-02  4.7792669693055082e-02  1.2633570710351416e-01  6.8390917966365317e-02  6.8840324929271932e-02  6.9012898343470824e-02  7.7161645636781451e-01  6.5117728631097230e-02  9.8679574792637711e-03  4.7829060543751335e-02  9.7401234751403592e-03  7.9712419852049210e-01  4.3781788165217737e-02  8.5148711469349636e-01  5.0925133650307972e-03  9.0108886654722258e-03  1.6566514321030127e-02  8.6505644150286179e-02  3.5235799120305965e-02  3.2102467269769154e-02  6.9968193434769094e-02  8.3716366377887513e-02  1.4091037041438531e-01  6.5390074425820705e-02  7.0657784916338603e-02  4.9028695291913595e-02  7.9085554608604933e-02  7.5834061864848534e-02  7.1888464722076093e-02  7.5581445525473426e-02  1.1168442687120167e-01  2.0350184955369444e-02  2.5560703887223171e-02  1.0211165470329417e-02  9.9891000506597091e-02  2.1367257473970565e-02  1.5093282619841992e-02  2.0593367268734335e-02  3.6095023295010568e-02  1.7615000008174904e-02  6.3853592273009047e-02  2.2778113975702768e-02  7.1165325606014532e-02  2.2731055932080867e-02  5.7297513797632656e-02  6.2566640354337444e-01  9.3420334029946772e-01  1.6459125089828983e-02  1.7956242023727333e-02  2.5841789333624497e-02  3.2468761386704049e-02  1.8794396478394808e-02  7.1078184409516507e-02  6.3518275844222510e-02  7.2199480360607651e-02  8.3167060092083467e-01  1.0050448109578979e-01  8.0996319547312112e-01  1.1663158718993309e-01  6.4590070126414323e-02  3.7020045957791611e-02  5.3417515266064364e-02  6.0416858626948858e-02  4.8431776129827422e-02  7.8627250097593293e-01  1.7656151046335256e-01  6.5496497800260498e-02  8.8734632337885944e-01  6.6226847364627237e-02  6.0074265418007207e-02  6.2086101859685890e-02  6.7347855424384609e-02  6.8797192729152051e-02  7.2538441938696366e-02  3.3124618240657218e-02  6.0832876098431410e-01  2.0837483496305157e-02  2.0412309257534310e-02  7.5925617753891075e-02  2.3084021403329394e-02  7.0978658246682730e-02  7.6336076557273369e-02  7.7139273405707073e-02  4.8341835314080733e-02  4.4431843542826040e-02  6.3326157101442682e-02  6.3003139828023458e-01  3.9500397668023678e-02  5.9957542609686505e-02  6.3111579451850197e-02  1.3445780217944109e-01  8.0801763608718558e-01  8.2292311468888957e-01  8.0256691512083633e-01  1.1843484155819674e-02  3.2253178532364798e-02  4.1753578777602843e-02  5.1481973732046500e-02  2.7761236207745489e-02  7.1749045300354017e-02  7.5304174180672104e-02  7.3403693056579261e-02  1.3561805804814213e-02  6.0315104914333917e-01  6.9072278120989192e-02  6.1724209288586407e-01  7.7460089093019291e-01  9.3096135040432360e-01  5.3037615109206737e-02  7.2116233770178936e-02  7.9628122101366516e-01  2.0082834082181297e-01  7.0134943487970294e-02  8.2252522335313272e-01  3.7394202847730505e-02  2.5967984179966409e-02  3.8311765988599727e-02  8.1139682190186324e-01  7.6950692311323898e-02  4.9944907267222005e-02  1.8578749468132527e-01  6.0847549737897647e-02  6.3074867739349699e-02  6.6843548635403455e-02  2.3059941296750885e-02  1.7908506635457655e-01  1.7841478339401884e-01  1.5382164574782748e-02  1.8667177191845394e-02  1.6281578516775727e-01  7.2344503284893086e-02  7.3424732983288513e-02  5.6035092498075534e-02  2.9811656113969014e-02  2.2824607133177136e-02  8.4511429965682033e-02  1.0442077859389970e-02  5.8696560793853381e-02  5.5615784414697389e-02  1.1416785526016249e-01  4.8695709245084970e-02  5.8949750097972986e-02  5.5510294380244442e-02  6.4802440828523822e-02  8.6859974437854173e-03  -5.3951652088875328e-05  1.6784594774879345e-02  1.4256787278713070e-02  5.9568289893277515e-01  7.7839099232478240e-02  1.3102716333981586e-02  1.5330960722407899e-01  6.3861859514918060e-02  3.5040592173527341e-02  9.1262495831999157e-01  1.2953208576596770e-01  1.6115804824809010e-02  1.7536380524293533e-02  1.8202249920999808e-02  1.5893517467192908e-01  2.2267814754142478e-02  1.3806005208218103e-01  6.3799964037748860e-02  5.1804867662885702e-02  7.6714082498493041e-02  8.1642142932533646e-01  8.3222312217157157e-01  1.3214955545586531e-02  8.0571030706362001e-01  4.6819268127289676e-02  9.2451906451858246e-02  3.7005618617794188e-02  2.8787981655507670e