<?xml version="1.0"?>
<VTKFile type="UnstructuredGrid"  version="0.1"  >
<UnstructuredGrid>
<Piece  NumberOfPoints="1312" NumberOfCells="2508">
<Points>
<DataArray  type="Float64"  NumberOfComponents="3"  format="ascii">-1.001109794744132 0.2372996928245869 0  -0.9943789580784175 0.1244571692912516 0  -0.9748398741468547 0.01424682886062997 0  -0.9428075508955502 -0.09341202125282926 0  -0.8987217863335956 -0.1967748597059964 0  -0.8421759999704268 -0.2959827857468365 0  -0.7753126663665103 -0.3871670668502608 0  -0.6992681688402369 -0.4694774914993625 0  -0.6168328553871277 -0.5409551268573491 0  -0.5325173060569161 -0.5997347992553377 0  -0.4464771432129148 -0.6477771898508955 0  -0.3572620026119952 -0.6867066590294985 0  -0.2665297420233551 -0.7165977750401689 0  -0.1738457440321495 -0.7376874255114949 0  -0.08316607741647054 -0.7494319675821081 0  0.001979516684586693 -0.7528360219135344 0  0.08700267344519674 -0.7485296779964016 0  0.1771570492819731 -0.7358785082181311 0  0.2690258148634069 -0.7141796163567382 0  0.3608753717240369 -0.6827644046777978 0  0.4483831532700617 -0.6431893359416232 0  0.5335385631163941 -0.5945010620482496 0  0.6164203592620993 -0.535562155198903 0  0.6963537102533102 -0.4652557476119981 0  0.771036176029304 -0.383910346455797 0  0.8377880864271049 -0.2925553771761855 0  0.8936170684059643 -0.1939310291464294 0  0.9378112418446906 -0.08950900916930285 0  0.9696403091566417 0.01858561174988373 0  0.9888864674836177 0.1293594455224425 0  0.9953106184761893 0.241161519463429 0  0.9887253382015547 0.3527472720855186 0  0.9692796970535692 0.463067492467567 0  0.9376314054390703 0.5693388097757635 0  0.8941950169165789 0.6714306143979186 0  0.8390965420253765 0.768530070474161 0  0.773823772108035 0.8580952710516534 0  0.6986595763746526 0.9401992469842233 0  0.6151641143937564 1.013102972219668 0  0.5237957061962975 1.076382408969431 0  0.4259796219599498 1.129031590082917 0  0.3231934797469067 1.170371717843629 0  0.215829780773201 1.200278684933666 0  0.105813297531212 1.218151572820162 0  -0.00533541913536461 1.224051503343495 0  -0.1157492340538401 1.217795790063395 0  -0.2256821167192519 1.199143924684945 0  -0.3325013159858168 1.168595405818493 0  -0.4351418502773405 1.126569202222711 0  -0.5330369322622874 1.073198939101353 0  -0.6236955240805303 1.00972647677986 0  -0.7067979875826842 0.9367397714633454 0  -0.7817002920645543 0.8543926431156614 0  -0.8470036995597774 0.7636932819969877 0  -0.9011475577621527 0.6674022771600882 0  -0.9442861586205092 0.5651431864510562 0  -0.9755749074748679 0.4587556127998896 0  -0.9947385187337474 0.3488944405104521 0  2.590122506285307 -0.0003897168185905535 0  2.582107385800388 0.2036066234785346 0  2.558295900976613 0.4047949665951764 0  2.518524942367333 0.6046377100910294 0  2.463320824664426 0.8003861137632283 0  2.392838119329396 0.991503095402802 0  2.307848155764573 1.175859789688003 0  2.208456144119826 1.353347330011755 0  2.095467714844295 1.522444505465403 0  1.969562030433955 1.68215743202257 0  1.831476360275748 1.831531921709242 0  1.682408044525957 1.969332202459025 0  1.522173937649659 2.095649761022441 0  1.353384467500534 2.208434396443396 0  1.175858002743152 2.30785227213097 0  0.9915131124610044 2.392837719437471 0  0.8003952910194736 2.463333984007626 0  0.6046392112776563 2.518529878522179 0  0.4047943119922073 2.558300351801446 0  0.2036093100515557 2.582112270940533 0  -0.000391169437601771 2.590127350908245 0  -0.2028259486716024 2.582174028467581 0  -0.4051835752216029 2.558216378271473 0  -0.6050353990292998 2.518469828597076 0  -0.8000215405424381 2.463477958686187 0  -0.9911896548988094 2.392935033852069 0  -1.17624263411791 2.307641768957398 0  -1.353003569147891 2.20865065593168 0  -1.522419988589424 2.095430179109351 0  -1.68245008694366 1.969293501919702 0  -1.831221291150771 1.831769170224298 0  -1.969762990660393 1.681901759272988 0  -2.095440818425886 1.522482713985532 0  -2.208482406606461 1.353300288451684 0  -2.307665838033691 1.176194044478948 0  -2.392929292744707 0.9911899780635984 0  -2.463323939463881 0.8003754660699129 0  -2.518638425710741 0.6043309290873484 0  -2.558245457854318 0.4051845528052602 0  -2.582115616093781 0.203543656943686 0  -2.590124411110694 -0.000334567453202088 0  -2.582154873624797 -0.203179514527644 0  -2.558248823564275 -0.405192363833935 0  -2.518571241772251 -0.6046552537532336 0  -2.463367424239963 -0.8003969688846941 0  -2.392975010140393 -0.9912024271287104 0  -2.307831349504804 -1.175898174819305 0  -2.208455280393389 -1.353344642611236 0  -2.095469270035877 -1.522441951624716 0  -1.969528750425498 -1.682190293610302 0  -1.83173283160137 -1.831260649789788 0  -1.681857652482831 -1.96979596536053 0  -1.522752635272834 -2.095226007160059 0  -1.35332099250002 -2.208417254575842 0  -1.175541515859054 -2.307997049775409 0  -0.9915597795491371 -2.392814025666081 0  -0.8000203114837521 -2.463477811780026 0  -0.6050333757359094 -2.518462923154335 0  -0.4051835837489015 -2.558203527130384 0  -0.2032087516456883 -2.582119867355845 0  0.0003377263869143741 -2.590127043340518 0  0.2031777781601696 -2.582157374323086 0  0.4051864869632702 -2.5582534585332 0  0.6046970118858603 -2.518561797586706 0  0.8000772852354666 -2.463461015265311 0  0.9915004624326675 -2.392842186791972 0  1.175897040249866 -2.30782890481123 0  1.353060837282769 -2.208617504555971 0  1.522706794042108 -2.095266114901214 0  1.68212582265486 -1.969586067498725 0  1.831537288017809 -1.831470749508464 0  1.969327901730546 -1.682410694970404 0  2.095426265045289 -1.522417508546849 0  2.208621823128006 -1.35304912251567 0  2.307807141185138 -1.175939072015427 0  2.392992519010983 -0.9911607477397368 0  2.463251619104588 -0.8007119333753105 0  2.51852197992745 -0.6046489916483206 0  2.558200996512308 -0.4051732643757544 0  2.582168708390034 -0.2028258661885896 0  -0.003822886942213904 0.2435251978124333 0  -0.1017044899667017 -1.667644094954689 0  0.8169183159368884 -1.480518761219231 0  -1.04506696761442 -1.342995561640593 0  1.456355443478552 -0.9218738829589102 0  -1.635670751425558 -0.6168340710809579 0  1.76173820333066 -0.1862754750554776 0  -1.791204706519136 0.1899601075984063 0  1.727480376720385 0.5833533735359528 0  -1.596151797184234 0.9309873165077496 0  1.40730773954885 1.225125774371883 0  -1.122082832464424 1.512712278526102 0  0.7979176381414075 1.721157476601496 0  -0.464313352685044 1.845525993059597 0  0.1738933737105973 1.85184509072663 0  -0.6955343952582428 -1.844844457719217 0  0.3904252322231174 -1.975787878764137 0  1.3828042542512 -1.500635253102736 0  -1.614217770636704 -1.190769689049678 0  0.5003330557132937 0.2789802103642413 0  -0.5077993046563868 0.2210395661646064 0  -0.4962745897610733 -1.326644475077637 0  0.2585383554355107 -0.1634677702434854 0  -0.2174917345134292 -0.1911249571718466 0  -0.2636700001050192 0.6632658954875131 0  1.946754607134134 -0.7235666096491925 0  0.2846511508549098 -1.288058753587932 0  -2.057746483232506 -0.2525377521383714 0  -1.122267012357577 -0.8201118867261992 0  2.075844369675581 0.2227242616114698 0  0.9207449740958712 -0.9797589025551787 0  -0.250224537268949 -2.121484376935489 0  0.8542792406793263 -1.949191959550832 0  -1.154694909438424 -1.794652844160309 0  1.843095650505619 1.050844820641379 0  -2.064642032051102 0.570849149144157 0  1.320810324251915 -0.4508602125055497 0  -1.583076290494547 1.412406807224227 0  -1.436559754341776 -0.1742999023435574 0  0.2310924117375766 0.6922094784074111 0  1.747865852563248 -1.258503755101589 0  -1.956428640606804 -0.9211838251825099 0  1.272818012638333 1.689654093256013 0  -0.9171572903972538 1.931679731790912 0  1.465655855257283 0.1735066762444067 0  -0.09873438952109008 -1.238134755215154 0  -0.729282752976023 -0.9946251334797481 0  -0.08606100840858429 2.184227971788977 0  -1.441013833439017 0.4838293372320663 0  2.146042124879412 -0.3615590126995144 0  0.54645873094099 2.086634476189535 0  1.332430633276085 0.7773739506426877 0  -1.159840498344248 1.070095089125152 0  0.9676490888582165 1.299551897884397 0  -2.191417817484359 0.1233843897931669 0  -0.6834086844998645 1.472622955870682 0  -1.40253968550609 -1.505905185813417 0  2.084340225595684 0.7547255278148089 0  -1.987989418301931 0.9531819396750892 0  -1.272249714605967 -0.4975178782026258 0  1.649029219087045 1.512262073054504 0  0.5378583721652686 -1.040455569874589 0  0.4380247911147476 1.549338373256704 0  -1.412089269362146 1.734814557047374 0  -0.1430260644375354 1.61023973726053 0  1.225460145295583 -1.849355217288347 0  -0.6407774643258621 2.153900513256539 0  1.052979642816481 1.9748075670958 0  -1.988342225509456 -0.5842144850904017 0  1.222892843321509 -1.18158740044072 0  -0.6134264142030031 -2.179132946843651 0  0.240296011481708 -1.642315442360547 0  1.015134320331511 -0.6489812860147782 0  -1.448024830147528 0.1524941656901203 0  -0.9564067655373865 -2.060541656137006 0  0.05508465038941585 -1.975888912273865 0  0.6011380126094804 -1.723380455173497 0  0.5834280537684287 -0.06274225472607166 0  1.673010324155454 -0.5099729728384965 0  -0.55020828171484 -0.1266981479820263 0  0.02630593175767467 -0.3970238378256749 0  -1.299633002095364 0.7746538417725219 0  1.423712893678901 -0.1467215947667307 0  -0.5901012667442521 0.5479953356351124 0  1.144405787549305 1.032497173564383 0  -0.3201297636744251 -1.046637120950735 0  0.2472607749531997 2.249392401136094 0  0.639041375056822 -2.187057548757737 0  0.2259422662114784 -2.259224417876593 0  -0.02946879173340721 0.9002653178358124 0  1.302444967594361 0.4475542004088208 0  0.5534244341619381 0.6320356706744583 0  -0.9204851922966841 1.268178023789511 0  -0.8948040949363701 -1.610149358251591 0  -0.3786641188164485 -1.826936924776259 0  -1.756666653777811 0.4947393363614065 0  -1.787001395054784 1.183219019586475 0  -1.927378135598831 -1.22759733829859 0  1.689311409559789 -1.560016917967425 0  -1.721584158949948 -1.489811947049668 0  -1.731750635295817 -0.3165861953012268 0  
[...]
<PointData  Scalars="f_4189-1"> 
<DataArray  type="Float64"  Name="f_4189-1"  format="ascii">3.5058220974161258e-01  3.4391499616484822e-01  3.4721912140523992e-01  3.3721355838754791e-01  3.3765773559620699e-01  3.3603238336433644e-01  3.4954343676442029e-01  3.4464484505310172e-01  4.1145038423104902e-01  4.2598841318212666e-01  4.2840930138447508e-01  4.3832156886862567e-01  4.1054701966491819e-01  4.2863491169940571e-01  3.2591553565420017e-01  3.0093683527649506e-01  3.3228644694200288e-01  4.1579754230258392e-01  4.3495606177219881e-01  4.3243112586416932e-01  4.4140441591556484e-01  4.4159463417954481e-01  4.2833704049913129e-01  3.5985513836251648e-01  3.4196959063764382e-01  3.3755798628718531e-01  3.4968264043585645e-01  3.4253885031707637e-01  3.4524210776712139e-01  3.4426907464788037e-01  3.4357279267610052e-01  3.5046656346047939e-01  3.5692361234074249e-01  3.4888816285084967e-01  3.5510152255024313e-01  3.5692224368687486e-01  3.5559756796469377e-01  3.5435091822589754e-01  3.6232529677962599e-01  3.6007511784731128e-01  3.7120960334037878e-01  3.6814256475220081e-01  3.6048263057187752e-01  3.6819489438745184e-01  3.6419166023400079e-01  3.7292813178721018e-01  3.6000743507073790e-01  3.7398461896609075e-01  3.6720514490985401e-01  3.6574384798448706e-01  3.6282373714924876e-01  3.6308570022667574e-01  3.6488587405164952e-01  3.5341799010538505e-01  3.5009914413220217e-01  3.5438601081166010e-01  3.5377348104544198e-01  3.4855459067950256e-01  -1.4665838298148430e-02  -1.7597820435380475e-02  -1.5583056657317254e-02  -8.7704192226393363e-02  -7.7467762940096191e-02  -1.1449731009050333e-02  -3.3469534527210878e-03  2.4549797620378247e-03  2.5999235617586583e-03  4.4324754993982831e-03  4.6165638100454836e-03  2.1323251537417884e-03  -2.5286894729730407e-03  1.2523568268057445e-02  1.2624377900937397e-02  8.4963867824915992e-03  -6.3658633928418047e-04  -6.1381740434610942e-02  1.0227024098940562e-02  1.2112791915628260e-02  1.0255821025455613e-02  1.1115751695790545e-02  -4.8576470794604162e-03  5.8307457219795395e-03  9.7630329656479501e-03  -4.9429695032244897e-02  7.1396267677937214e-03  6.5201843906959418e-03  -5.5664921596244421e-02  3.6321319218487439e-03  -6.5615527929672340e-04  -2.6363000437900912e-03  8.3160265201681766e-03  -6.2600914585449088e-04  -9.3416559183677923e-03  -7.6535450400680036e-02  -7.9212663433518030e-02  -1.3744080755781894e-02  -8.2113100532755588e-03  -1.7161364331168338e-02  -1.9863190330765862e-02  -1.2173507293046342e-02  -6.6070313092096346e-03  -1.1680951325538624e-02  -8.7804991569341590e-03  -1.0794996083337260e-02  -2.0907133680521193e-03  -4.5039578455800646e-03  -2.8313264303742041e-03  -2.3528221467313637e-03  -4.0401795978040932e-03  -7.7769101093534878e-03  -2.3150894364226357e-03  -6.1836160705255987e-02  -2.0508876575125140e-03  -1.5204808484499727e-03  1.1261052259854878e-03  -3.1087429519082194e-02  -6.5818224275558057e-02  -1.0056649281931744e-02  -4.7089135520047166e-03  -2.9342937884255319e-04  3.7939396805227736e-03  2.9763540740838207e-04  9.5096129090516427e-04  -1.4395297667105216e-03  4.7106448510671117e-03  -5.5092598389487246e-03  1.0147069041581133e-02  2.8072421008865649e-03  2.6142600152720354e-04  -5.7890803690832954e-03  -7.7802844730837942e-02  -1.1196477391993091e-02  -7.0330868798295833e-03  -5.0859260773945102e-03  -1.5609978206266662e-02  -8.9175821453218201e-02  -8.5345641815511353e-02  -1.8124562247124259e-02  7.9409583248154270e-01  5.1240865918611961e-02  5.2106195396260525e-02  4.9137482392641679e-02  4.3755890621891259e-02  3.8763922558835547e-02  3.7883246398417315e-02  3.9502399418934443e-02  4.2087371389423506e-02  4.7470693646610593e-02  5.0595866197495683e-02  5.7202934069115925e-02  5.9921728360050247e-02  6.3550025110076638e-02  6.4607184478608790e-02  5.2273365558443259e-02  5.3023350960202456e-02  4.8407151504023978e-02  4.3112477032275123e-02  7.8014343912774931e-01  7.8207483047216420e-01  4.5113598293847701e-02  8.1264049469707378e-01  8.0914104572795076e-01  7.7249518696605679e-01  3.8615595396551010e-02  3.6367542130130680e-02  3.6733594246378523e-02  4.1753412829395181e-02  3.7904190600210788e-02  5.0809070620050523e-02  5.1434211577603743e-02  5.1423709390065582e-02  4.8698245953170273e-02  4.4497294003497820e-02  4.0262906406787598e-02  3.4049802895737176e-02  5.1039806916951494e-02  3.3407162931648332e-02  7.7091592779734530e-01  4.2664343883186594e-02  3.7673444631684060e-02  5.4251308280257468e-02  5.9575499735070751e-02  3.4481363847185129e-02  2.3123996530018023e-02  5.0658658320906443e-02  6.2547586046895809e-02  3.9616628966581496e-02  3.5562326095295839e-02  6.1174060204564014e-02  4.2714317263303214e-02  5.0845828878051086e-02  5.3713200891203856e-02  3.6230260514982356e-02  5.9507647357492498e-02  4.6569994174120437e-02  3.9392585112877035e-02  4.2945072179605623e-02  3.3780569864170468e-02  4.8040719160393555e-02  5.2477243365712911e-02  6.1822158552903857e-02  5.3063688643715606e-02  6.3391920155646417e-02  4.8541490011416590e-02  5.9939386171403063e-02  5.5823511555859469e-02  3.7084924897934600e-02  4.8499077223860557e-02  4.8750659474617548e-02  5.1299567748981804e-02  3.7794321436129964e-02  3.5399894015583251e-02  4.7718660045128251e-02  5.3132745963905055e-02  5.3416530410305058e-02  7.8609953406826794e-01  3.8888075636416400e-02  7.8492744735414044e-01  7.8738993329659313e-01  4.4667587961321274e-02  3.2459942109585638e-02  7.6329385886002232e-01  4.8996083172099858e-02  4.3524053302541985e-02  6.0787162773671410e-02  4.8662179232389323e-02  4.9192707354711977e-02  7.5742056323216878e-01  3.7318394923623960e-02  7.6471868412489052e-01  5.3712974944746195e-02  5.1366200711803589e-02  5.3035449980961304e-02  4.2112431951594746e-02  4.7214815860729807e-02  3.7712267040918665e-02  4.2703702192745344e-02  4.0777708827445837e-02  3.7573422325367492e-02  4.5600973683783429e-02  4.1470757281467700e-02  3.4057348994462187e-02  3.8575362762957220e-02  6.1698571910190105e-02  3.2038400025090674e-02  3.7620930937648997e-02  7.3468702406096834e-02  3.4500461126903859e-02  6.4471665624398364e-02  1.1516304787558067e-02  4.6848149940878950e-02  4.1254751111203851e-02  5.0981460810094512e-02  4.6834469655920051e-02  4.3261369371889506e-02  6.2259107322321872e-02  6.2597913019313070e-02  4.1600726088712146e-02  3.3105394378676739e-02  4.4452399480770600e-02  5.6399265602271979e-02  4.7525210490411286e-02  4.5490452442265315e-02  5.1531003153827838e-02  4.8252217863997679e-02  6.2477851420192701e-02  5.2078762335716768e-02  5.3756388546820237e-02  5.7328268715047863e-02  4.7301881133724119e-02  6.6494210549786728e-02  3.9964421910947977e-02  4.1607448159783962e-02  4.3141953662227388e-02  3.4742883202262077e-02  7.8429236939361668e-01  4.4492031221801454e-02  4.4976124679666087e-02  5.0187210507088451e-02  7.4881906887696659e-01  7.4411223879719524e-01  3.8196588551171709e-02  3.1847729462430523e-02  3.1752993091711236e-02  3.7549525710070086e-02  7.9771757973379098e-01  3.2276976475350855e-02  7.9796209639948590e-01  7.8353983439296360e-01  7.7906411525561836e-01  8.5729984310176099e-01  8.5242350349125562e-01  8.3263524642336562e-01  4.5973365060888553e-02  5.3757131671204633e-02  7.4590133574015793e-01  3.0562437951351662e-02  7.8421260260122350e-01  4.7802275847883616e-02  3.7386169078124018e-02  6.0251368342088538e-02  3.7821665768013810e-02  3.2578343059748750e-02  4.0270088081133415e-02  7.3676238614793055e-01  4.3565260577401059e-02  4.0313499272806211e-02  4.8347703638830036e-02  4.0085008493585518e-02  4.5588828353672069e-02  5.0451930155972699e-02  4.0234558564653237e-02  5.8568560234559357e-02  5.6898472682831346e-02  5.3815540614887879e-02  4.8052384300440572e-02  3.8258783956498982e-02  4.6642911973434772e-02  3.8181428375677895e-02  4.8228320241893198e-02  1.2122790032056886e-02  5.0520588490526749e-02  3.3636541724724363e-02  3.6237742173091815e-02  5.0277409265392578e-02  3.9417972533598591e-02  4.4266754512074166e-02  3.6964384631762749e-02  7.5704191831529222e-01  3.9415322153194474e-02  5.3860756040037275e-02  4.4317259186580013e-02  5.6428727432658025e-02  7.3980081458064351e-01  4.6543511178998895e-02  7.4691867563614855e-01  8.1185603795103167e-01  5.3221256019880071e-02  4.6258396378293015e-02  6.2231720767882616e-02  3.0750144821615064e-02  4.4421357089454536e-02  4.9678736445773315e-02  4.8956429738167294e-02  3.3610539563880312e-02  7.4254282872492763e-02  5.2613004454777783e-02  4.1248570803337652e-02  6.5303660971930327e-02  5.7559309581103113e-02  5.2146591100963445e-02  6.5244602160289891e-02  5.6985335641474164e-02  5.0716508549294902e-02  3.9729658171049960e-02  3.6848203837595399e-02  4.9309032308344325e-02  4.1784469068887775e-02  4.5777251731229984e-02  3.2204209780804405e-02  7.5710808863677787e-02  6.3418907128959354e-02  6.0452394447381222e-02  6.2071422960541321e-02  4.6185314034994859e-02  6.9154123669059500e-02  7.4241645875126050e-02  4.5007187784898116e-02  5.0520323822695126e-02  4.0403394607162545e-02  3.9412429684046707e-02  5.4057819238481387e-02  5.5961430211268363e-02  4.5732743199746809e-02  3.6859235225844000e-02  4.0322603088370865e-02  5.8275935000595844e-02  5.8175651847226825e-02  3.0467446807790753e-02  7.9343147780781220e-02  3.4388368555584248e-02  8.9906015243775478e-02  3.9629282539229697e-02  7.9386255825422192e-01  7.9606865133348248e-01  5.6912000596054314e-02  3.5078499498126095e-02  4.7637808060323208e-02  6.4329736865951184e-02  3.7081980569238143e-02  5.1879054042219666e-02  7.9482449799439125e-01  3.9909503679070750e-02  3.5304970405801973e-02  5.1283290802297321e-02  5.5925558951317747e-02  4.7513330059185351e-02  5.0332430451695429e-02  1.3879345922378544e-01  8.1866599450643757e-02  8.1579747786409751e-02  7.7367541353793601e-01  3.8461279291267643e-02  7.6457782876764435e-01  2.8905744844175105e-02  5.5530228630718333e-02  5.6566854381382668e-02  6.0512666228251105e-02  6.3898014704722728e-02  2.5237946471811316e-02  5.6720511953678408e-02  6.3747886153793551e-02  6.4665529066291791e-02  4.0807756100773807e-02  3.4683208788456113e-02  3.8729208091716621e-02  3.7195197293203440e-02  4.5694934797252548e-02  3.3624829743083513e-02  4.2426371240918109e-02  5.0893691581152464e-02  5.0359110116714859e-02  4.1712596267198372e-02  4.2505253096237129e-02  5.1609696041888531e-02  9.1743103951018312e-02  4.5900228207402520e-02  7.7556742231353870e-01  5.3384164813286651e-02  4.7679508353088887e-02  4.4426745044869161e-02  5.2962739444540406e-02  3.6573948456416011e-02  5.8934797086585625e-02  3.7491268247740073e-02  3.5047499192357605e-02  2.0994116692835050e-02  5.2634388954613302e-02  3.0638041999056842e-02  5.1679279269863806e-02  7.9363565231275957e-01  5.3443249095585468e-02  3.7903097109535343e-02  7.3056331095697336e-01  7.1698730096827368e-01  3.6342554844541700e-02  4.2260114526462361e-02  7.5420001725371699e-01  5.1623737119828345e-02  7.7642441725786682e-01  8.2167685067513496e-01  5.0527171304204366e-02  5.3349169198225105e-02  4.5374468790566197e-02  4.4481788153410438e-02  3.8115703829509170e-02  9.2214059994312522e-02  3.6357459488792793e-02  4.4226163959478836e-02  4.2114684935239982e-02  7.1090811590692937e-01  2.9228199288882692e-02  3.3557559875193495e-02  7.7126467701335066e-01  7.7204406986234486e-01  7.1750913427161367e-01  4.3750974503259703e-02  5.0697689475774591e-02  3.0161685279812812e-02  4.9683374271359444e-02  5.0620431496659735e-02  5.2310916068675620e-02  3.7736296244897674e-02  9.9247275148075215e-02  5.6070568793910820e-02  4.6375126104582429e-02  1.2348961662808992e-01  1.0824935246196450e-01  4.6845483456327053e-02  5.8843908860321315e-02  7.1698451787378825e-01  5.1561331826219275e-02  6.2691224281685401e-02  6.3581424674707926e-02  4.6281247247978947e-02  4.9300554708110837e-02  4.6223464945243355e-02  4.8916858877381703e-02  3.7626648543464904e-02  7.2055696188552731e-01  7.1667089762368674e-01  5.3857774519810761e-02  3.9984806645399204e-02  3.3640798034708222e-02  5.5311623827100399e-02  7.8699160528616519e-01  4.6735002183207461e-02  7.8618537589712600e-01  7.2778851099703001e-01  8.0718446434034485e-01  8.0690396905200856e-01  8.2708876537807019e-01  8.1250404396320997e-01  7.2624162762910038e-01  7.2867876758978753e-02  5.2642558245298642e-02  4.0596079449210190e-02  3.9117026487220624e-02  2.8376632160528183e-02  7.7293537943690060e-01  3.9884791385725697e-02  3.7101020047638204e-02  3.6067037030765803e-02  3.3449561179568210e-02  4.2479899583272876e-02  4.4327044994773135e-02  4.1713400416462453e-02  3.2744202199660399e-02  3.8907897936970838e-02  3.7490336375396900e-02  4.6058630634820040e-02  4.1252860421538445e-02  4.2039286459869742e-02  3.8817677674268650e-02  5.2311210407728820e-02  6.2002820560169682e-02  6.2458647890908083e-02  4.0050679299125862e-02  4.3270064133809787e-02  4.2528878600686992e-02  6.1332305028043321e-02  4.3828634638983663e-02  7.6870709391275260e-01  3.8986488609557501e-02  4.0940250015826921e-02  3.8323704534000483e-02  7.0151876922103906e-01  5.5661474505938113e-02  3.1676230454983814e-02  3.8018823320382568e-02  3.6110442472625029e-02  3.5466919363629855e-02  3.6566507928651008e-02  2.7803210105395926e-02  3.2259276979278530e-02  8.5254242655761725e-01  2.8888364781701901e-02  4.7557256010129341e-02  3.7827798145179836e-02  5.0224595423967372e-02  5.1974922624456528e-02  4.9166013302598441e-02  4.1449882593166745e-02  1.0001197351804218e-01  5.7326764651903797e-02  3.0092407292487751e-02  3.1786036342900871e-02  4.9581105664098048e-02  3.5840292898782614e-02  9.8419891852577532e-02  3.9614622418682285e-02  4.6059021526827802e-02  4.5269504697614316e-02  4.8329664941865115e-02  4.3162043595807588e-02  4.9576152675732926e-02  5.9995925643334301e-02  5.1432221213033001e-02  4.1108081537011801e-02  4.8284093920930270e-02  3.6254455040950886e-02  7.0684048594290827e-01  4.3349303390518470e-02  4.8045169833289457e-02  4.0727162386489185e-02  3.8140207348422515e-02  5.1320514710142116e-02  7.6546077375094723e-01  4.0704449568823999e-02  5.0674901645018235e-02  4.2153334293288602e-02  2.3104491075388651e-02  3.6108550730936648e-02  3.6737228687653598e-02  4.4077553464906577e-02  4.9466456082537753e-02  5.2623521716558749e-02  7.8844294022603645e-01  3.0072433722059672e-02  4.2432505387621916e-02  2.8104734169359758e-02  9.4464323107197462e-02  4.3776280995252340e-02  5.2767066164285933e-02  3.4589189681172250e-02  8.2535549066272335e-02  7.6529002001695434e-01  6.3154056198056363e-02  7.7941272213452328e-01  5.1366833905109356e-02  5.1558540412680411e-02  4.4029820506281798e-02  4.8144125765510935e-02  3.4643985804350234e-02  5.1576473923860333e-02  7.8603881856484670e-01  7.7883653485254478e-01  7.8683847560182563e-01  4.5015625966739088e-02  5.1934446488451400e-02  5.0513965968897359e-02  5.0346617229137705e-02  5.3914375626923236e-02  4.5549469510447867e-02  2.9039484749813601e-02  4.0083975398635265e-02  4.4476542046568084e-02  4.0657241940521151e-02  4.1651077246194809e-02  3.8117564604287876e-02  8.2849220710167926e-01  4.8640803487992865e-02  7.3335499826248041e-02  4.6078558313942065e-02  4.2195808247557483e-02  4.8166315902541258e-02  3.7887954569599890e-02  3.8047928399381259e-02  3.8744541170004872e-02  4.9490071240453973e-02  4.7526760744819721e-02  3.7727693751073370e-02  5.2242961116670268e-02  3.2174806583741958e-02  4.7877052664005944e-02  2.8181954111339721e-02  5.0545220100121441e-02  6.1297784572077456e-02  1.3187374152404616e-01  3.9772144529243159e-02  7.6937752832078732e-01  2.9200602908177387e-02  6.4896326684928798e-02  6.4708017991462100e-02  4.7690189151396861e-02  4.3095429941543792e-02  5.1734663166935611e-02  3.3144771890298338e-02  5.2986659872122178e-02  4.3162434970417766e-02  5.5160383933573594e-02  -3.4384250438437218e-03  2.3367296732482310e-02  4.9716492520579567e-02  1.3518779548771481e-01  6.2767015532992118e-02  7.8001661556663604e-01  7.7540636933658158e-01  3.6288352654856595e-02  4.6915507041997727e-02  4.8762223973596121e-02  4.5516412583155898e-02  5.6738569981387973e-02  5.7535115596600586e-02  5.9367640426366212e-02  3.2049513659570608e-02  3.0276337692875480e-02  6.7807945857637242e-01  6.8196035638285391e-01  5.5838439225859168e-02  5.8348089527203731e-02  3.7801539383525283e-02  7.7735485703925244e-01  9.5126675838538080e-02  2.8229240108907389e-02  4.8632651332519539e-02  4.5907084925872095e-02  4.5303603267106113e-02  5.8316723519452981e-02  4.8242996724931278e-02  3.2004333125440064e-02  3.5764997290588033e-02  3.7912862373616255e-02  8.1640122230749201e-01  8.1889450748013137e-01  7.9492196659137171e-01  5.1609083767483688e-02  6.4416150851853121e-02  6.4000366920645271e-02  6.4131218751344518e-02  1.1108683258464354e-01  4.5878027121228036e-02  5.1273864380998534e-02  5.9247672342628593e-02  5.6264556092810697e-02  3.6806334140215856e-02  6.4801273517219216e-01  5.0082229189426716e-02  5.4488294263913557e-02  4.4932831834300760e-02  5.0309480891100197e-02  3.3885596171273527e-02  2.9945219625055003e-02  4.4747955799150009e-02  4.5698714627273797e-02  5.4923406257013876e-02  5.7163731080907255e-02  5.9489019128707112e-02  4.0378241153290854e-02  8.1912927414837425e-02  4.0401253139267582e-02  2.5602955401639760e-02  4.0631960447219555e-02  7.7463271195694272e-01  4.8331741834638751e-02  5.0321411477407346e-02  9.8360074386000682e-02  3.4758860166654311e-02  3.7375063518539996e-02  6.6240998937313084e-02  4.0164154127230706e-02  3.9982170444840613e-02  8.6605770513863076e-02  1.3994702102899281e-01  4.3394397995920736e-02  2.8759804294841755e-02  6.3863475303900116e-02  6.1944388236269063e-02  6.0772814280521670e-02  5.2123918101427275e-02  5.5583434199919825e-02  5.3393475532790086e-02  1.3524809804754501e-01  3.7158926306044587e-02  3.2726279225870167e-02  3.4156446561196936e-02  7.8985853295994735e-01  3.9826382786565973e-02  5.0521603438922584e-02  4.5725120517014932e-02  6.3344492874549269e-02  6.2964550140898343e-02  6.0560445313557018e-02  6.1726253368501627e-02  7.6181187933327277e-01  4.6875824858640648e-02  3.6171113987331069e-02  5.3229023573503745e-02  5.3372040644241822e-02  7.7533104326271207e-01  1.3089991791509811e-02  3.6141657009785028e-02  5.2736310190275262e-02  4.2447358195594510e-02  4.3589848215172755e-02  5.8810575673227929e-02  7.3142550747855406e-01  5.3466125602868377e-02  5.5195587369348889e-02  5.0729606954033848e-02  3.7621590937483435e-02  3.8056634889153389e-02  3.8079320524021618e-02  1.1396334725218098e-01  5.1783204368378646e-02  6.1848263123756089e-02  6.2609348534811302e-02  6.1259229120253555e-02  4.2857736103278726e-02  4.4607879817272808e-02  4.6935543287880278e-02  4.7696795172419544e-02  1.0397125444313446e-01  6.0633919957652632e-02  5.4314166270684271e-02  3.8540164294252624e-02  5.1787829585521396e-02  4.9324704001577478e-02  3.1622543584181172e-02  3.2694016282528167e-02  8.0058527731089080e-01  7.9349496473110304e-01  4.6366406596985668e-02  4.9122203107521321e-02  4.0018566595899349e-02  6.4143068937691450e-01  4.3419250454834024e-02  5.9606651650200008e-02  1.5240505102230442e-01  8.4799777876792737e-01  3.2731735207795848e-02  4.1222837435518550e-02  4.1136858925950627e-02  4.8567049020963989e-02  5.1926723850778858e-02  5.0042261170358648e-02  3.8105580824405585e-02  4.0910895602711571e-02  5.3111609186313413e-02  5.7997233515115987e-02  1.4472465980213567e-01  6.3588920211330968e-01  5.3544913318352053e-02  7.6895398465591702e-01  3.8968796349377867e-02  3.5988356544740023e-02  5.3067783489121570e-02  5.5145939465722452e-02  7.9262994417338217e-01  7.9115880231610713e-01  3.4751267303472076e-02  3.8231326447752442e-02  4.1658670559478708e-02  4.5463026075667150e-02  3.0717867815259575e-02  7.6194290566378953e-01  3.9248287611881746e-02  4.0382493951762827e-02  5.4516302229829200e-02  1.0802726143091890e-01  3.3321534346739672e-02  3.1998179341139431e-02  4.0420328128787701e-02  4.8739295854569015e-02  3.7805416140983809e-02  3.7392894026822977e-02  5.2085407889451478e-02  3.72