<?xml version="1.0"?>
<VTKFile type="UnstructuredGrid"  version="0.1"  >
<UnstructuredGrid>
<Piece  NumberOfPoints="939" NumberOfCells="1746">
<Points>
<DataArray  type="Float64"  NumberOfComponents="3"  format="ascii">-0.9869905119567902 0.00144978795314676 0  -0.9756100902179069 -0.1077300585815619 0  -0.9513877195691369 -0.2153459005116405 0  -0.9149466514279523 -0.3190960664783308 0  -0.8657589756701677 -0.4184547598595463 0  -0.80646819106459 -0.5100468792242066 0  -0.7396686913726398 -0.5912098974146746 0  -0.6671409423236787 -0.6622551179149248 0  -0.5905266807562936 -0.7233222614947881 0  -0.5098553159085164 -0.7754355438373859 0  -0.4256817446373101 -0.8190254866907032 0  -0.3390739196416868 -0.8540123301088369 0  -0.2498807148881963 -0.880916641257908 0  -0.1576002083960874 -0.899541323260492 0  -0.06421356725087116 -0.9097587343253134 0  0.02995174962925798 -0.9114449273648121 0  0.124095075705921 -0.9041815405338012 0  0.216418619466791 -0.8886021060317293 0  0.3069176312193346 -0.8645129185094633 0  0.395092033377092 -0.8321785018042742 0  0.4805464200716543 -0.7913802398382596 0  0.5623368007917544 -0.7422985155503297 0  0.639658741773977 -0.6849149583420006 0  0.7135431695394931 -0.6180228742102982 0  0.7829571135415518 -0.5402291020085752 0  0.8454059963742278 -0.4521024700431038 0  0.8985013294541742 -0.3550049743355413 0  0.9396213764688157 -0.2525195770535006 0  0.968251451820377 -0.1466084168278471 0  0.9842597716359766 -0.03747271750137764 0  0.9871708359190368 0.07272006562373048 0  0.9770472656584652 0.1818194821141394 0  0.9543946278244285 0.2885864543710897 0  0.919242473031555 0.3926497153219 0  0.8729133368564013 0.4911094167239704 0  0.8148264939068792 0.5843549736276503 0  0.7469355200804604 0.6700209263344116 0  0.6697577111878346 0.7476201009730438 0  0.5844896993327791 0.8160544712345732 0  0.491792781962453 0.8748934173604587 0  0.3935036308975641 0.9230186610175046 0  0.2906135967798751 0.9604077214163514 0  0.1834710338623053 0.9862729394786711 0  0.07466218316957146 1.000268977088382 0  -0.03491971627982872 1.002268323227634 0  -0.144550252294293 0.9924984008998462 0  -0.2527093720546697 0.9708821689266828 0  -0.3568514622189057 0.9376647784250083 0  -0.4568104284542946 0.8934646119894881 0  -0.5522633137164811 0.8379524173276843 0  -0.6399208444658395 0.7730273190639716 0  -0.7204422373345277 0.698466291318467 0  -0.7916181908023476 0.6157919767278619 0  -0.8535545248173475 0.5246056446481171 0  -0.9039358530691838 0.4283283705587455 0  -0.9432531748103594 0.3268868616211014 0  -0.9706118348292012 0.2209062695731291 0  -0.9853020821217511 0.1122566013769774 0  -2.122237775859483 0.1026527204468402 0  -2.122222632415882 -0.102653022404125 0  -2.102417170324819 -0.3070057287182888 0  -2.062973411623636 -0.5084779854932256 0  -2.004267664217898 -0.7052100756859543 0  -1.926849478963015 -0.8953550486187457 0  -1.831445510691572 -1.077148739104911 0  -1.71893031988197 -1.248875794241656 0  -1.590378147539337 -1.408946368747154 0  -1.446958926820336 -1.555853776277658 0  -1.290049075203713 -1.688257524857011 0  -1.121094038007428 -1.804880192851101 0  -0.9416559247600247 -1.904660717063296 0  -0.75344313413138 -1.986647265434487 0  -0.5581762447319873 -2.05008241506569 0  -0.3577019879091473 -2.09439758883306 0  -0.153905757617339 -2.119142473596183 0  0.05133515177183579 -2.124104025206323 0  0.2561067825089744 -2.109220075076632 0  0.4584843947538614 -2.074665116181124 0  0.6565752544440903 -2.020731942462052 0  0.8485353327336463 -1.947916696425168 0  1.032573822400777 -1.856927564433766 0  1.206971963676819 -1.748600907895564 0  1.370114304598074 -1.623951709078118 0  1.520449761602983 -1.484141729437264 0  1.656589329814054 -1.330464541492322 0  1.77725969594818 -1.164374935430345 0  1.881341635508576 -0.9874025178970269 0  1.967855701384446 -0.80121926946369 0  2.035996895896168 -0.607557561648593 0  2.085119762619012 -0.4082137078491387 0  2.114793990267676 -0.2050637131521961 0  2.124714508061694 -1.70987190751447e-06 0  2.114783489061864 0.2050628451643216 0  2.085121684862072 0.4082109450882507 0  2.035990651162675 0.6075486221909658 0  1.967859187501347 0.8012233375918053 0  1.881336355180114 0.9874006301673447 0  1.777255130679827 1.164365767702254 0  1.656594654257998 1.330464945605287 0  1.52044550107742 1.484144616247118 0  1.370113310169599 1.62395787749877 0  1.206979230813591 1.748614467420377 0  1.032586422966605 1.856936955101267 0  0.8485364016844498 1.947932962027293 0  0.6565728996019152 2.020722385957284 0  0.4584794892114081 2.074657139388744 0  0.256106611304996 2.109221928257653 0  0.05134113879643463 2.124093519758736 0  -0.1539088935856393 2.119145378956252 0  -0.3577108048680819 2.094386334594883 0  -0.5581789543761851 2.050083309846817 0  -0.7534378173689904 1.986653495337317 0  -0.9416607775286634 1.904659065910945 0  -1.12109391374449 1.804888627626122 0  -1.29005108095093 1.688257438026572 0  -1.446972825596166 1.555864450000015 0  -1.590379134387895 1.408947132515981 0  -1.718926300059857 1.248868394842582 0  -1.831437831429092 1.077137338811119 0  -1.926857797851658 0.8953502520988712 0  -2.004272197193663 0.7052115987407626 0  -2.062966505655999 0.5084737898972093 0  -2.102420710052877 0.3069886229515598 0  0.001723983027333629 0.08372361526969807 0  -0.03659863078448267 -1.533706863606772 0  0.5432923988915291 -1.439433228093363 0  -0.6119502586499524 -1.41234852191056 0  1.048218626462452 -1.133719714144228 0  -1.101577820869147 -1.082487299124193 0  1.418319058287532 -0.6088884715910582 0  -1.442269331416568 -0.5538053034063368 0  -0.6345552229369874 1.429816764294487 0  0.83536037129486 1.322675628441878 0  1.55653986385495 0.04526623320675355 0  0.03007749014723208 1.560221873594347 0  -1.536249349049966 0.27543062876051 0  -1.134291471047705 1.080355134434611 0  1.280001968563827 0.9030562367548003 0  -0.5051063071632479 0.02864426069806643 0  0.5049049437457238 0.01136881645898783 0  -0.2185541152661835 -0.3446962200551482 0  -0.2646393507877493 0.4702837985715905 0  0.2932577915824154 0.4526391506603002 0  1.377205543367817 0.4537059788725221 0  -1.478131317420113 0.7517795434030395 0  -1.661643035008209 -0.1543823961182167 0  0.2364073000353377 -0.3542394006965086 0  0.409966634348792 1.358936248721603 0  0.6427766969289507 1.647320143952737 0  0.2960629993836951 -1.730824368675611 0  -0.3777168967406189 -1.714111402101034 0  1.419768384823397 -1.032210620458148 0  0.9291198603687982 -1.492722513346106 0  -0.9972599565038663 -1.446268143829655 0  -1.466319013172713 -0.9340407748726907 0  1.621303064009869 0.7345597202654183 0  1.728749498929883 0.3748227864983596 0  -0.3417040280157917 1.703993019466034 0  -1.010667608708997 1.445242110834597 0  1.211772306357344 1.282270251223405 0  1.742802030400553 -0.2671910207287293 0  -1.321711678728524 -0.06188621887753579 0  1.321184827420323 -0.2614566855422686 0  -1.256095444264477 0.470463393671703 0  0.3125212091280322 1.765469521895612 0  -0.2722092209754287 1.335277606643678 0  1.066101572823779 -0.7776114242679921 0  -1.105089905107047 -0.7265121992414143 0  -0.2930035620245752 -1.247796349515441 0  0.2455449840559573 -1.250705765338102 0  0.02163441351906744 0.6731945925621627 0  0.6783476362689799 -1.116247072153512 0  -0.5883394468010766 0.3424566588728155 0  -0.5424515166466504 -0.3088873660857323 0  -0.7316402998266887 -1.084354774057763 0  -0.792988751637971 1.072601191148787 0  0.9347265165222031 0.9745797748392981 0  0.6082645601165082 0.3185436788135972 0  -1.72207445309194 0.5511932009778797 0  -1.811788421068727 0.1292623642014519 0  -1.08555568204885 0.749896747815419 0  -1.451956174604894 1.07935862970153 0  -1.758473595375864 -0.5318009797276513 0  1.73309681944942 -0.6156365983362599 0  0.5455018557370802 -0.3161948829637863 0  0.005194778075897659 -0.5641486132616585 0  -0.102512308654662 -1.828912066568061 0  0.6549783866305425 -1.723062217164585 0  -0.788432533435183 -1.655823454946468 0  -0.0449150084681107 1.847954915499173 0  1.299757866512048 -1.296119075624065 0  -1.265663859965133 -1.329893953872748 0  1.135881235762634 0.6290757001037486 0  1.143688790257677 -0.4918133534212005 0  -1.220946570899796 -0.3477451922569615 0  -0.5122707619927743 1.170374780043906 0  1.852098359378099 0.07717897957530645 0  1.042981536382838 1.519232175480479 0  -0.8101536098399893 1.655517696042361 0  0.6706443393292287 1.089322937147595 0  1.265019901909069 0.007329304298391995 0  0.1235664080063056 1.281961687668816 0  -1.294843438920429 1.318668710411882 0  1.542716266606084 1.011125530420953 0  -0.02271310859740736 -1.205842394146521 0  0.01077205543032611 0.3618897957670052 0  -1.268545167242591 0.1983366888346428 0  -0.8658919725235776 -0.8640310422722716 0  0.8587298210314727 -0.9372517837130062 0  1.636716164343947 -0.8672046995779569 0  -0.7337705675048829 -0.09532846697857107 0  0.7279948275777911 -0.1224673453283776 0  0.3357266639972982 0.6889549043346362 0  0.2414634471476833 -0.07365865584012805 0  0.2799909767696845 0.1886354456146962 0  -0.006776831094849856 -0.178046424469126 0  -0.2462360048806182 -0.04741047232003712 0  -0.2357960997688014 0.2137930854941401 0  -0.2261991090197705 -0.6072864411422464 0  -0.3097066580770113 0.7036132227775701 0  -1.686370433409541 -0.7836124311197545 0  0.4061817212375699 -0.5326815984200651 0  -1.473100050609545 -1.185775903404312 0  -0.4751713302551317 -1.090002767683423 0  1.190199701033182 0.2896321780691131 0  -1.640373013827028 0.9358260383914797 0  -1.290352307144222 0.8967927493041938 0  0.3110427744797556 -1.488718555624114 0  -1.900284672239611 -0.1925532923899679 0  -0.575095202242232 1.660911657141475 0  -1.489154644416725 0.5139117637439076 0  0.4282839071213641 -1.101525902800802 0  -0.6005241249854697 -1.806111971898278 0  1.526130462474063 -0.3957563920883541 0  0.1262596133988061 -1.899974643530793 0  1.170172923730612 -1.498164406099808 0  -0.38481741639028 -1.474311107400998 0  1.443531343461247 1.23378538706458
[...]
<PointData  Scalars="f_1907-1"> 
<DataArray  type="Float64"  Name="f_1907-1"  format="ascii">3.4475571290350621e-01  3.4074841425031749e-01  3.3340168184793606e-01  3.3922718661975115e-01  3.2566119088666090e-01  3.6069586501346079e-01  3.8243230453871546e-01  4.4038837846525997e-01  4.6480592704351859e-01  4.5676750276698702e-01  4.5517738070120944e-01  4.5551175408376343e-01  4.4142381578333495e-01  4.6268852100683544e-01  4.5765676226429547e-01  4.7918532775704070e-01  4.3945683845321415e-01  4.4699134401962021e-01  4.5519144856533250e-01  4.5671432578936177e-01  4.6847832641791637e-01  4.4177729896149720e-01  4.4774559530619967e-01  4.0747155403389063e-01  3.7358597877075050e-01  3.4477167223967681e-01  3.4132789285823767e-01  3.4536576775560812e-01  3.3969364338439390e-01  3.5114454604335094e-01  3.5629983355321809e-01  3.4880691758976023e-01  3.5491016672426989e-01  3.5669694366098864e-01  3.6919097305471033e-01  3.5942189101298816e-01  3.8306128981394233e-01  3.6703750397118895e-01  3.8290472792703573e-01  3.9336489369966404e-01  3.8241734401380839e-01  4.0194510994580396e-01  3.7814235009270197e-01  3.9036877704367251e-01  3.8205305578064608e-01  3.9787001315405274e-01  3.7941967693644080e-01  3.8071358110753645e-01  3.8817205431819712e-01  3.8329523439132468e-01  3.8250110379408625e-01  3.7249880406247265e-01  3.7169534877357280e-01  3.6211381402211057e-01  3.6213490013404243e-01  3.5484375214701003e-01  3.6414478131047268e-01  3.4783529875290026e-01  -3.2002391592593209e-02  -1.0327774793944418e-01  -6.0152682493291483e-02  -6.2589145597817600e-02  -6.1236705110902574e-02  -5.9286352615523709e-02  -2.6973707893205596e-02  -5.3813998488920198e-02  -2.7642178456718049e-02  -9.0983789029451992e-02  -2.1345844053544869e-02  -1.7572425436905945e-02  -8.3018953562935070e-03  -1.3367781814968787e-02  -5.8801357012163449e-02  -9.2371500804609291e-03  -4.7605612596094615e-03  -3.6151558598640893e-03  -5.6632230004585803e-02  -9.8941233395832186e-03  -4.1544308688633742e-03  -6.4744314008875564e-02  -6.8325372457750208e-02  -7.3321637538766318e-02  -2.8251016687447297e-02  -2.0876697449762709e-02  -3.8860573024236185e-02  -4.1522297259651390e-02  -5.2728957551916943e-02  -5.4628570119442978e-02  -5.4475043640931468e-02  -1.0869188906658818e-01  -6.2666407824722881e-02  -5.2344218701335966e-02  -1.0753763512355331e-01  -9.8460608866245955e-02  -9.3090211495923433e-02  -2.9467055696840844e-02  -7.8859410137084376e-02  -7.7770415409057603e-02  -1.1111792912280972e-02  -1.4114278027429537e-02  -4.1563402232309829e-03  -2.8378364058456664e-03  -5.9675401774847391e-03  9.2041983782723373e-03  -4.8365109664435003e-02  -4.8383995639063475e-02  -4.6060827953223721e-02  -4.4903486072835869e-02  1.9999776305285297e-02  -4.3245599028310204e-02  -4.9470492888157518e-02  1.0118709802434133e-02  1.8798466816478004e-03  1.7252465861513723e-02  -1.1730325908333020e-02  -1.0745119936476269e-02  -1.4154903191865322e-02  -8.0273072307728482e-02  -7.2232463737353453e-02  -2.7356031951641876e-02  -2.9423965527922875e-02  -9.1070319171005998e-02  -5.2068129269736196e-02  8.3863814093192501e-01  7.0542566140104984e-02  6.5784282649678005e-02  6.3560611994004271e-02  4.7234849865786042e-02  4.2884574095454958e-02  1.9490710666208763e-02  1.8636892098507538e-02  7.2691187992333095e-02  6.7913432844744395e-02  2.1980020680869024e-02  7.8001910096813218e-02  2.8494312909480662e-02  5.7346567129450035e-02  4.9681932971646248e-02  8.2538990511080657e-01  8.2605682215684861e-01  8.8601893446161983e-01  8.1011693712827815e-01  8.1046094636170174e-01  3.3184965904013451e-02  4.2243675013259097e-02  1.8834936152036404e-02  8.8689065897337038e-01  7.4763586013643635e-02  7.1617448559116920e-02  6.6751249290800049e-02  6.5667117712646328e-02  3.0735195469898259e-02  5.5280734182473083e-02  5.1965743547389226e-02  2.6610107158246715e-02  3.7504459331090721e-02  2.7036612083565038e-02  7.6025000797674547e-02  6.4417297238082857e-02  5.7901242412828749e-02  1.6077271479475096e-02  1.5002665798061985e-02  1.0971911956563302e-02  3.2571061751233470e-02  7.5044557063452047e-02  7.7524705986769318e-02  2.7622968874190957e-02  2.2850473878626459e-02  6.7180583157113768e-02  6.8550659898322611e-02  7.9933951421393712e-01  6.4148533069235819e-02  8.0586988968189288e-01  8.4524076720824792e-01  5.6202354955510292e-02  6.2436252570728545e-02  5.3200462968253363e-02  7.9794679815109892e-01  3.0667621413872748e-02  2.0890264276107288e-02  5.2533318219485432e-02  4.8583108585478013e-02  1.4932507691341744e-02  1.5197609830700764e-02  8.4737883063621244e-01  9.1272540975242078e-01  6.5016201616024366e-02  6.0606052988308567e-02  5.6672502874453898e-02  7.4558151405167430e-02  3.8757054621814495e-02  4.0232807306988611e-02  4.9589189571390128e-02  1.7551321148276296e-02  1.6551342082814096e-02  7.5616764719636714e-02  1.8252583238544607e-02  6.2110878716291201e-02  6.7695423011223291e-02  7.1705978154699035e-02  2.1192417824162372e-02  8.6445042437491459e-02  5.4049285920730827e-02  4.4185329707766390e-02  7.7122140527023597e-02  8.1885539839640631e-01  3.0004230131395228e-02  5.7613426888892171e-02  5.5955964125208812e-02  1.9485416245305243e-02  7.9065644705863980e-01  7.8555243490430937e-01  7.7852866129059062e-01  8.4943587241478014e-01  8.2574149181859102e-01  8.6625192958645547e-01  8.4647274120122495e-01  8.2543049547404335e-01  9.1671092948829913e-01  7.7908473665934841e-01  1.6341486853612842e-02  9.0337089831451967e-01  2.8400750773861411e-02  7.3386009023291454e-02  3.6904265790658648e-02  3.9916753527798748e-02  4.9888013149599238e-02  6.9167758546073738e-02  1.2591797073484762e-02  7.3179009170558459e-02  3.5533195939265495e-02  7.5485331600638417e-02  5.8525247122929294e-02  1.7099633380568764e-02  6.3661114330668636e-02  4.5030377836748160e-02  6.7674996042964800e-02  4.8538368081078330e-02  1.7628506566963565e-02  2.2655359900639962e-02  7.9280305189735711e-01  2.7602248507361177e-02  4.1809111385947929e-02  7.7152771344939108e-01  8.9732160037649555e-01  6.5035154471509288e-02  7.9778382615190535e-01  2.7940305443683030e-02  7.7700813795928736e-01  2.2187362836800697e-02  5.7225164179314718e-02  8.6417696707364017e-02  9.1889320495513849e-01  5.7970257954928259e-02  6.5655861256536330e-02  2.5479308306806728e-02  5.8571409503262811e-02  6.7826867448197187e-02  7.7391739932976086e-02  7.1998400310168742e-02  3.5835871094937431e-02  1.4722842860455153e-02  7.5814208506045880e-02  6.7049126388360095e-02  1.2472608602231823e-02  9.9391144925151623e-02  6.1883299186117756e-02  7.0657689396549594e-02  9.7648677825497490e-03  5.9932020560090324e-02  4.8958216772475735e-02  1.8005972568531706e-02  7.1008626755957857e-02  6.6807043750044745e-02  3.2020089598490363e-02  2.3200398887271965e-02  6.8504605322164375e-02  1.1200356707578444e-02  1.4183125749911756e-02  1.9045624906351824e-02  4.3083419417565751e-02  7.7788181202545464e-02  7.6342067383371931e-02  2.9493263914627227e-02  6.3030293031613616e-02  3.1073661892839999e-02  1.7035247983353909e-02  6.9861009859275472e-02  8.5893133230098639e-01  1.2120645386589511e-01  5.5468062080165491e-02  8.1378222916566223e-01  6.1444587290459471e-02  5.9325997166279121e-02  6.8668964511910804e-02  5.3447808345934725e-02  6.6226306847946587e-02  4.2554022064302872e-02  8.5853502687531225e-01  4.7791123771059131e-02  4.9624402901239706e-02  4.7872931057825092e-02  2.2617695331560769e-02  4.3574633259351001e-02  8.9146430042395264e-01  1.9864596126154800e-02  6.9862202535880269e-02  3.5821076735743411e-02  5.6624495480928717e-02  6.7621121807710488e-02  6.0915600474031467e-02  5.9062715690256229e-02  6.2602725223493139e-02  3.8603965502035660e-02  5.6213232769935007e-02  3.3912234843543484e-02  7.5670698641771916e-01  7.8702851682378033e-02  1.4241240803259675e-01  6.0311450751729348e-02  1.1112493337931577e-01  1.4378531619361397e-02  6.5179192351001156e-02  8.1558064618409878e-02  1.5031158267325387e-02  5.0776561592744934e-02  7.5520794885396991e-01  6.9812597883965696e-02  2.5847941024480733e-02  5.2325607905597121e-02  6.2879783445125501e-02  6.9431188709533576e-02  8.1212974600605736e-01  7.2445485338212368e-01  1.1910731889881600e-02  7.6531638141603339e-02  4.3874891687558662e-02  2.9334107027740402e-02  2.4551896793013988e-02  3.0097717555447823e-02  7.5792443522889930e-01  6.2591489886758667e-02  1.4499149376001344e-01  8.2492726960750751e-01  7.6234006909635377e-01  6.2165058068927831e-02  6.7105076528900742e-02  7.3623793599836826e-02  1.5907273294495247e-02  7.4501034704077906e-01  7.3719924254636437e-01  7.1786425813975707e-02  5.7488054096918380e-02  5.9180326172511920e-02  9.1360758257385000e-01  1.2083547127842366e-01  2.0149753798740448e-02  4.6076338209842790e-02  3.6446527923841940e-02  2.2500962431655100e-02  6.6745664019847217e-02  3.2499799957440623e-02  2.4787079846324438e-02  6.5541982241261232e-02  1.4338037374503909e-01  8.0353755924912373e-01  8.0593238993991567e-01  6.0882525828720047e-03  6.4031150555541233e-02  2.6102941767697611e-02  2.2412005147980592e-02  6.9577892309416078e-02  3.0844042048562274e-02  2.3972411130149390e-02  6.5201841836249080e-02  7.1913160472241139e-02  1.4534656205543364e-01  3.6987776390698023e-02  1.8523905353755265e-02  7.1552392395717979e-02  3.7971423008104466e-02  2.4824530194548496e-02  1.2606100228998021e-01  7.6901753420775698e-01  8.1045383961995809e-01  7.5215135280208581e-02  5.6313362445274219e-02  8.1448705152404222e-01  1.7753169610233863e-02  2.9720883779607764e-02  9.5752349110760325e-03  9.0733995370415799e-01  8.2823882153857975e-01  6.9631019721649118e-02  3.6700688602171419e-02  1.6570261426725783e-02  1.8444267057809393e-02  5.9917025858710102e-02  5.8882731307781523e-02  2.0494991554059400e-02  5.3047822219459410e-02  7.6872468257984133e-02  8.5728684967504121e-01  4.0694243904726118e-02  7.1957946583008725e-01  1.5611641504737952e-02  8.1015851146723750e-01  8.7509566911712661e-02  1.4414697211137814e-01  7.9397393057385704e-02  6.4316718355396568e-02  1.1201170222119121e-01  9.4226540770129055e-03  5.3515919797788643e-02  8.3822513422531597e-01  7.0424690233435155e-03  1.3962545674967929e-02  4.2774120094829525e-02  5.0378968833964054e-02  1.8160865885528683e-02  3.1302946863723174e-02  2.5374995763735714e-02  5.3261117875701848e-02  4.1700599033915861e-02  4.6410472089813089e-02  9.0429346640469943e-01  2.7841995842603180e-02  8.4685345566176096e-01  1.7698824815511487e-02  8.3113744284327662e-01  1.2725170476370135e-01  8.2739242195956297e-01  8.3763596656028150e-01  8.5116208009702565e-01  8.1875528022095734e-01  6.9891407295736763e-01  8.2138426749009041e-01  8.3427664252539691e-01  7.7062154409190869e-02  1.1790052749388456e-01  9.0841275563359092e-01  8.6439706058377563e-01  7.3878161927106140e-02  8.7923996739562083e-01  8.8058098203728941e-01  6.6804842577450660e-02  7.4841360851725996e-03  4.5705356871720039e-02  6.9395054412095869e-02  8.0515193129450113e-01  6.5006607494003622e-03  3.5003078302519156e-02  1.1990035630839921e-01  5.5585476866799564e-02  8.1233794142363325e-01  8.1807224522711974e-01  3.1204394932787288e-02  5.9709835838571791e-02  6.5475072151714150e-02  7.7883200406259206e-02  8.4216831119918711e-01  6.2254174888216288e-02  8.3993360753048063e-01  6.8253965213893458e-02  4.3404495549324552e-02  7.1015527249961699e-02  7.0937326947237631e-02  8.0900389902502845e-01  8.2738793830096380e-01  7.0572088542471198e-02  1.5225646894808867e-01  7.3567501775302357e-02  3.6006630289034468e-02  1.4254563849132071e-01  8.5345995465342300e-02  7.7306502099514937e-02  1.5062250483689985e-02  1.3389413734118438e-01  6.9855721643447621e-01  7.1861830678174504e-02  6.5757044381246535e-02  4.1702445439756312e-02  8.6623298945257887e-01  6.8804613743793402e-02  2.4152876833109790e-02  8.8911998635172254e-02  7.1228206616436418e-01  6.9448803519517444e-01  4.8955528008293982e-02  7.9547112221558736e-01  5.1389972040498930e-02  5.6799663331115413e-02  7.0935135313361375e-02  5.0542595903287663e-02  1.4641206373329432e-01  5.6710021789666519e-02  1.1189241210437062e-01  3.7307308998770987e-02  6.4642909240633720e-02  7.1718217597681155e-02  1.1280016668629048e-02  6.4304763500398945e-02  -1.9309329442954271e-02  6.9113377153206590e-02  4.4670202730344055e-02  7.5586125462260512e-02  1.2417157990236493e-02  8.3694320101512432e-01  8.5072579336607002e-01  1.0323246108815598e-02  4.6768683552465613e-02  2.7977252223813136e-02  2.1527073329140767e-02  2.5124239408618864e-02  1.5985776696202526e-02  6.0581313904546782e-02  1.5321323824960131e-01  6.0740123014835209e-02  5.5763796695419560e-02  3.1859622039007128e-02  8.4353299696891015e-01  3.7462441384602349e-02  7.7804586289824743e-02  7.0412849827519886e-02  5.4833517064105504e-02  5.2285658753648614e-02  4.8074710176578973e-02  5.7590792170014664e-02  3.0585871745476369e-02  1.8635160004428712e-02  5.5325484656548775e-02  1.5397368406779083e-01  1.3879499255429950e-02  4.5510256764159394e-02  7.6806379751941281e-02  1.3502341319860235e-02  6.8173157163019277e-02  5.3338521222967762e-02  4.0054214659063690e-02  8.8158436102799476e-01  1.8105363653584065e-02  9.7218863437431371e-02  1.6681243623350706e-02  8.2355371343071959e-01  2.8666491641744798e-02  7.4100993445666841e-02  3.5654246561108494e-02  4.0991765975320414e-02  7.1079127537390083e-02  8.7345955346621507e-01  4.1781353463870685e-02  1.9206302506434143e-02  6.0797257611178421e-02  6.4345582082574881e-01  7.3785097334563954e-02  3.9265449718669812e-02  2.1830402634118676e-02  6.3743111117093867e-02  8.2202422132082087e-01  8.1293343075003432e-01  2.0842348453054674e-02  7.4076810457047859e-01  6.9256942028557561e-02  5.3991821011734761e-02  6.3121088439843998e-01  8.1748009523146348e-01  -1.3827433469668275e-02  8.7639721091095990e-01  6.1960322322900485e-01  2.3128980736216033e-02  4.3891268286852483e-02  3.0199168840662517e-02  4.4684021427796670e-02  6.5836253639861730e-01  8.0049601701644935e-01  6.6469154612949333e-02  8.0722667500507717e-01  3.5091032557432317e-02  6.8677588722238961e-02  2.0543053329748082e-02  3.9260723567995960e-02  5.0784632898217275e-02  2.3468170007268890e-02  7.7824140131334751e-01  9.0617765803040395e-01  1.3311314102306820e-02  6.2743454510183239e-01  6.8984506909454249e-02  4.0507159220558968e-02  3.4989845209903538e-02  5.5975756980941642e-02  8.1720124666165961e-02  3.9900010708542176e-02  6.0969425373557380e-02  2.5447392022899390e-02  4.8586071232683561e-02  7.0163624812515243e-02  6.7556179167491251e-02  1.5870748056628088e-02  8.0828503002865992e-01  9.0698352683412586e-01  1.4235113537002619e-01  6.6338807490492924e-02  6.8216955933808165e-01  2.8113150651012029e-02  5.8639688604463377e-02  6.5376650995743246e-02  6.5507777699661207e-02  6.3285906322948962e-02  5.3260070494272900e-02  5.5669765087792089e-02  6.9028582938708366e-02  2.5947422073745622e-02  2.3769169018741428e-02  8.2395283152883081e-02  7.0509765730596710e-02  2.3758350493792754e-02  5.8777672717394369e-02  6.5070452418955815e-01  1.8154463199272212e-02  8.6440424803149929e-01  6.3941713431727576e-01  3.0535424363598424e-02  3.0020981638971423e-02  1.4596576433354646e-02  1.7381017006910068e-02  1.7090636739150934e-02  6.2476943338694768e-01  7.3935185986211890e-02  2.0427801651067206e-02  6.5392384599943190e-02  1.6577601916068777e-01  7.9711085697646655e-01  3.7024845571686324e-02  1.1322555510450751e-01  -2.5459252109178990e-02  3.1633682239231693e-02  1.3957491130042063e-01  7.7905000988688511e-01  5.3842051499309249e-02  4.2657052594093095e-02  4.8158709007125343e-02  7.8510008685046617e-01  4.1657108632886235e-02  6.2006474696700474e-02  5.1360401433771574e-02  5.8790187689225497e-02  3.8221985947410601e-02  7.8372588283634859e-02  4.0519972101506020e-02  4.3569267806710395e-02  6.5165299617148661e-02  6.4013390280240334e-02  5.7529474880632446e-02  2.7581771000066570e-02  4.5808008660803777e-02  1.2481624582944237e-01  6.7496193242394115e-02  6.7723365677428385e-02  6.8103615412087870e-02  7.6226226144848153e-01  6.2994486898336949e-02  9.8980756257344461e-03  4.5814570687374802e-02  9.5978597492255169e-03  7.9166521469785156e-01  4.1806888193455967e-02  8.4170203057901916e-01  4.9226834191324837e-03  8.7114497191356759e-03  1.6367827766316588e-02  8.5747176442234591e-02  3.3520066054754438e-02  3.0495961298843310e-02  6.8499161853051369e-02  8.1486731788050826e-02  1.3705415119330042e-01  6.3870728444982525e-02  6.9239183427678166e-02  4.8001946572670602e-02  7.7980545402834001e-02  7.4410367803932939e-02  7.0422424018531674e-02  7.4271975835028231e-02  1.1178519453893870e-01  1.9600155163026173e-02  2.3990234111820205e-02  8.2556680944511299e-03  9.8168683740084556e-02  2.0507385226240710e-02  1.4129592077167840e-02  1.9532737671482784e-02  3.4538313132545795e-02  1.2958347882330964e-02  6.3102540814877942e-02  2.2362687532131713e-02  7.0179350063743720e-02  2.2635819614546176e-02  5.6164396327296848e-02  6.2055593278402499e-01  9.2598904772727353e-01  1.6525151298915505e-02  1.7852164206391387e-02  2.4508386668109144e-02  3.0610265216543919e-02  1.7716023709744306e-02  7.0007529050975251e-02  6.2895034873933442e-02  7.1019976741610077e-02  8.2402450587535769e-01  1.0236400620770361e-01  8.0195623147797912e-01  1.1464110954375438e-01  6.2795381654010982e-02  3.6701222487247151e-02  5.3021206483225961e-02  6.0099695836303174e-02  4.5913292514168029e-02  7.9018055302551493e-01  1.7600159244492691e-01  6.3071960739295177e-02  8.7827502017711778e-01  6.5402685198378469e-02  5.9088952565360758e-02  6.0825617734347706e-02  6.5451182608352573e-02  6.7073547211247100e-02  7.0890963475927771e-02  3.1640229215291422e-02  5.9561340014811592e-01  2.0389515811900061e-02  2.0599315658569848e-02  7.4474504776058659e-02  2.2370098805543727e-02  6.6858625271693853e-02  7.5105644098740779e-02  7.5979498863472536e-02  4.6540616387591376e-02  4.2214578088041681e-02  6.2048714532021307e-02  6.2836427984302434e-01  3.7404563805453164e-02  5.9170126461879996e-02  6.1310236495549134e-02  1.3033590163213851e-01  7.9978167717885851e-01  8.1526087459602870e-01  7.9684609296106446e-01  9.2509282249795006e-03  3.2809302981194666e-02  4.1666256870572384e-02  4.9828732500513048e-02  2.5436251765031313e-02  7.0244917017301553e-02  7.4019831637582439e-02  7.2013505937821520e-02  1.1919793832707689e-02  5.9335376627265712e-01  6.8139550607590041e-02  6.0607472395500528e-01  7.8824553646411488e-01  9.2131611052678020e-01  5.0746556493473927e-02  7.0745249732930601e-02  7.8824165537515156e-01  1.8479912595257311e-01  6.6622210958521902e-02  8.1417179658760996e-01  3.7059952468447878e-02  2.6128157712550941e-02  3.6497889225456367e-02  8.0273197195692270e-01  7.5616094533108622e-02  4.7357749876908335e-02  1.8421851539641426e-01  5.9361706627841071e-02  6.1019822701622206e-02  6.5077691473375596e-02  1.9633029501212439e-02  1.7762514172862889e-01  1.7872606782651079e-01  1.5754236997803404e-02  1.8913707211339361e-02  1.5996755020495279e-01  7.1074914931369110e-02  7.2203045011594746e-02  5.4009707086814802e-02  2.9532048457884614e-02  2.2784000649214535e-02  8.4013071656985808e-02  1.0395114237039111e-02  5.6950268423499040e-02  5.4275415236933702e-02  1.1935930484450767e-01  4.8723707884077698e-02  5.6893275322295191e-02  5.3077468345976771e-02  6.2597222906785571e-02  8.1164706281339084e-03  -1.0211550431821243e-03  1.6000354229519384e-02  1.3729579381297905e-02  5.9178377079570577e-01  7.4210562135551411e-02  1.2964434411793981e-02  1.4825695805142705e-01  6.1809382807831791e-02  3.3398358995062084e-02  9.0673603251598911e-01  1.2221365422132102e-01  1.5653544053580274e-02  1.7182833090345375e-02  1.7749780202003781e-02  1.5697482837778623e-01  2.2299194745522798e-02  1.3598282304085760e-01  6.2589048760430741e-02  4.9866639711889232e-02  7.5425599836268176e-02  8.0855876082909928e-01  8.2359023336104242e-01  1.2569182573829406e-02  7.9736254452319955e-01  4.5078994214406580e-02  8.6219370324227843e-02  3.5366874052655171e-02  2.7356730841001251e