<?xml version="1.0"?>
<VTKFile type="UnstructuredGrid"  version="0.1"  >
<UnstructuredGrid>
<Piece  NumberOfPoints="1417" NumberOfCells="2668">
<Points>
<DataArray  type="Float64"  NumberOfComponents="3"  format="ascii">-0.9964224279925422 0.2759800824779746 0  -0.9921964073723759 0.1658643864939093 0  -0.9754398491025954 0.05650024297983857 0  -0.9462950092718391 -0.05069602780043503 0  -0.9052149288225367 -0.1539338783902359 0  -0.8526579329739157 -0.2520450603216156 0  -0.7895424471422345 -0.343617726799342 0  -0.7173049777451337 -0.4267664378750436 0  -0.63744985574049 -0.5006598701100164 0  -0.553477679203391 -0.562976424739341 0  -0.4667128165287891 -0.6147279324416479 0  -0.3762057874574894 -0.6569479363021098 0  -0.2830689892095621 -0.6896207107817274 0  -0.1880993856671608 -0.7128587882646202 0  -0.0932428728761906 -0.7264359629052299 0  -0.002912757380240421 -0.7306290862168422 0  0.08781946010857841 -0.7262322330745082 0  0.1818455176428531 -0.7124803820737154 0  0.2759518359647845 -0.6892162463966163 0  0.3684010285363176 -0.6564888930029164 0  0.4583020053369249 -0.6144064734140571 0  0.5445316871466722 -0.5631061033619619 0  0.6276021024064545 -0.5015576560708447 0  0.7059632273304741 -0.429760919270856 0  0.7785026332972244 -0.3474335665955213 0  0.8422777597542707 -0.2563825113963256 0  0.8956150132900943 -0.158564023598769 0  0.9370479330364603 -0.05618580539800629 0  0.9669524310581462 0.05089148512662418 0  0.9845508614470175 0.1609755718749496 0  0.9894808935060194 0.2707176315762499 0  0.9820055084068136 0.3805986905142062 0  0.9621435212732411 0.4891439048054211 0  0.9301210890721581 0.5946912216113412 0  0.886934679685302 0.6948892824073388 0  0.8325747056847009 0.7898804820221168 0  0.7679799726109925 0.8781993514160672 0  0.6933890605001841 0.9594605208978364 0  0.6108964139335147 1.031385745432722 0  0.5208973260799085 1.093791459315526 0  0.4244267674023935 1.146012917621537 0  0.3229360785344599 1.187200032031002 0  0.2177772745198779 1.217006259816869 0  0.1093866145197402 1.235243125140222 0  -0.0009310401585928515 1.241440200905932 0  -0.1101965988901208 1.235693967048765 0  -0.2184436896240967 1.217993028150204 0  -0.3245234216461035 1.188380031666642 0  -0.42633129447483 1.147494790571373 0  -0.522918360240093 1.095768990412838 0  -0.6129568411678638 1.033977012271994 0  -0.6960927975098663 0.9623069171130141 0  -0.7704994360183968 0.8821269352974772 0  -0.8359025059371465 0.7938083331980157 0  -0.8908980816185806 0.699010855450391 0  -0.934966002377779 0.5983562538443742 0  -0.967408435274688 0.493924783331224 0  -0.9880816863554581 0.3856872831916097 0  2.648282315264522 2.915606071096306e-07 0  2.640520642482539 0.2027242876361525 0  2.617244981528945 0.4042568499824487 0  2.578619325509964 0.6034200684670361 0  2.524864253665705 0.7990391607975844 0  2.456288186252944 0.9899714498979001 0  2.373299459149603 1.175094950033735 0  2.276383222064285 1.353320365667723 0  2.166108150883484 1.523604457185946 0  2.04312226234754 1.684950320853233 0  1.908153683466518 1.836409765528546 0  1.761970647273027 1.977081461049418 0  1.605466427441203 2.106170200252584 0  1.439524806878105 2.222884855834196 0  1.265145129718148 2.3265553781435 0  1.083332804157433 2.416576744021323 0  0.8951704643134876 2.492413512457466 0  0.7017462333896316 2.553616151439605 0  0.5042100329029591 2.599841455885981 0  0.3037130731335917 2.630820223177151 0  0.1014378948784113 2.646342481076509 0  -0.1014337175724232 2.646349566425288 0  -0.3037144898310656 2.630812159505166 0  -0.5042073653012885 2.599852834235616 0  -0.7017460330908998 2.553617641980629 0  -0.8951652617476935 2.492406287824196 0  -1.083337412564597 2.416574862554924 0  -1.265141293917879 2.326557342484002 0  -1.43952704635075 2.222887602799769 0  -1.605460326061382 2.106168889008386 0  -1.761977128705749 1.977089755218687 0  -1.908148664012962 1.836413324955709 0  -2.043128031333102 1.684957788984916 0  -2.166116824092389 1.523609944235619 0  -2.276384551583467 1.353321616638995 0  -2.373308445417023 1.175095583596849 0  -2.456288876160236 0.9899720660270656 0  -2.524870623115054 0.7990445244936063 0  -2.578628338013134 0.6034215615762406 0  -2.617245448843552 0.404256799819534 0  -2.640519641984981 0.2027273773952241 0  -2.648280099735511 1.817404762961227e-07 0  -2.640509862024075 -0.2027257762084946 0  -2.617244875379721 -0.4042605453198008 0  -2.578627374666171 -0.6034199379507548 0  -2.524868907628703 -0.7990460858410352 0  -2.456294494057078 -0.9899767375257263 0  -2.373306755809809 -1.175096859631318 0  -2.276389694813178 -1.353327667159852 0  -2.166113163797244 -1.523611918307012 0  -2.043127528529558 -1.684954917757392 0  -1.908150045981723 -1.836411616394568 0  -1.761979328437652 -1.977087606954651 0  -1.60546113442493 -2.106167384994628 0  -1.43952135609919 -2.222878088588368 0  -1.265139013020334 -2.326557892073162 0  -1.083331266536282 -2.416575554573306 0  -0.8951697001453931 -2.49241154199169 0  -0.7017503588701133 -2.55362409311788 0  -0.5042091913303425 -2.599842812155897 0  -0.3037135197795814 -2.630819598704047 0  -0.1014360856694051 -2.646341271361792 0  0.101434747155558 -2.646348678846818 0  0.3037164603327762 -2.630819031708246 0  0.5042094060776795 -2.599842505521222 0  0.701750442199799 -2.55362406768268 0  0.8951688495584406 -2.492414832831872 0  1.083334979254435 -2.416574531323314 0  1.265139085381943 -2.326558320171175 0  1.439521176764674 -2.222878690737312 0  1.605461240090049 -2.106168375103169 0  1.761976966369559 -1.977089378801653 0  1.908150424525819 -1.836410896029924 0  2.043126063097186 -1.684958339293448 0  2.166116657677583 -1.523608046431862 0  2.276389287221666 -1.353326602344147 0  2.373306891489294 -1.175097815611489 0  2.456287787056308 -0.9899713944254021 0  2.524870373070562 -0.7990397985166121 0  2.578627506414402 -0.6034220798132759 0  2.617252898427339 -0.4042591107580866 0  2.640518693487075 -0.2027288541492149 0  -0.004466010791382125 0.2610204380784093 0  -0.1278243953358126 -1.68585164504099 0  0.8662937622724801 -1.472565936324421 0  -1.059478364771073 -1.351996036994144 0  1.536662189773267 -0.843796815663606 0  -1.664790157325526 -0.6069306385582134 0  1.805794779677155 -0.06055355382340871 0  -1.818587092802042 0.1989542115870583 0  1.706984434997545 0.7532863716554286 0  -1.607911900443332 0.9760238584710692 0  1.26718109721445 1.427916971498769 0  -1.124115567834837 1.557774806736228 0  0.5900958900294131 1.849521449991389 0  -0.4594801975466158 1.887071344035508 0  0.4526413167393856 -1.95690209691508 0  -0.7282360912690317 -1.882645116182277 0  -1.643639562521223 -1.256180678717584 0  1.44383574681558 -1.503560395731427 0  0.0619188659090639 1.770758125219226 0  0.3278201758177495 -1.419611472325364 0  2.022051356276923 -0.5659261838899069 0  -0.4802940331663653 -1.244830677490852 0  0.4880793550241931 0.3529186862237132 0  -0.5044619644135712 0.247588252859653 0  0.9573620522368802 -0.9437380184993479 0  0.3028426757431311 -0.1164119039562567 0  -2.105069653791181 -0.2488711619736392 0  -0.2581333596396566 0.6832962761349964 0  -0.2226678457826265 -0.171541081715091 0  -1.133851232747367 -0.8061116020680407 0  2.089042483538646 0.3928153097652144 0  -0.0002244150840743678 -2.167567758366805 0  0.9374949582474459 -1.955566664220395 0  -1.200559513359216 -1.811420680093524 0  1.371870851150851 -0.3600978266941115 0  -2.034046283890579 0.7222853300702763 0  1.813896665896478 -1.222158917626898 0  -1.444144772316319 -0.157037545580935 0  1.734357801525179 1.312717485681238 0  -1.978708506925324 -0.945367526423588 0  -1.63864977463989 1.450967363738543 0  1.075531243636276 1.879599383273485 0  0.1705284244373223 2.207531806372585 0  1.482920707917692 0.3051271459688934 0  -0.05901134801206798 -1.244303933003455 0  -0.9176342795495155 1.981482197097586 0  -1.456102999356666 0.5108950882958481 0  2.216695540608468 -0.1890977262248522 0  0.2124529704674479 0.7357031328830377 0  1.283184643740374 0.9516178943771171 0  -2.23285490312093 0.1433580489428236 0  0.8115782913316733 1.445655759120379 0  0.540827622163174 -1.065194899164984 0  -1.155756916469918 1.106889258510599 0  -0.8093565842224221 -1.034859986260403 0  -0.6761222022309843 1.504051975563267 0  -0.3595930752164676 -2.012341329990017 0  2.108709707549989 0.7931115686092186 0  -1.977280427658152 1.107157854662769 0  -0.3494954726977219 2.255000386119739 0  1.435386562982681 1.771022239884113 0  -1.32338219105873 1.873348236111144 0  -1.575350639789511 -1.638113950492494 0  1.297398525097818 -1.143672967973961 0  0.3681987208994476 1.551856497375337 0  -1.182570523517305 -0.4388576345639581 0  1.066549428437376 -0.5910477240695899 0  -2.029456838635768 -0.5950174228613049 0  0.5421411319284494 2.221546407914226 0  -0.2535324388228706 1.581091187550703 0  2.072970544700821 -0.9422542382123219 0  0.6976983316259586 -2.2085872547563 0  0.3278216018088646 -2.284734297507367 0  1.310239769260992 -1.864820555940007 0  0.9941584630322566 1.145130625097751 0  1.316252504473498 -0.01631643229344058 0  1.296571740643071 0.5976238876740738 0  -0.476697183340645 -1.607755662325113 0  -1.473862345382682 0.1755502893653716 0  -0.6399436731490934 -2.216819093281162 0  -1.310243643476873 0.8096961432279725 0  -1.314435280711577 -1.112172789241428 0  1.723543986028201 -0.389203554629645 0  0.203397059602305 -1.059835788832058 0  -1.645691771731673 -0.930204006160376 0  0.6102978993466387 0.02659760554447613 0  -0.5534861069296688 -0.09541364456907171 0  0.05307477575229412 -0.3595044840389227 0  -1.787308365427283 -0.1310518341681315 0  0.6891160090340834 -1.739244682696425 0  0.139797199653341 -1.868894758981705 0  2.01998957045938 1.125401449785421 0  -0.7473834535626197 -1.440753513589075 0  -0.5820023844612546 0.5740215173102826 0  -1.004099897884847 -2.088063196278574 0  -1.968451044538772 -1.265663464440228 0  -0.1615717196826504 1.997956275048945 0  0.820506818576041 2.068846326719077 0  -0.6459537352010365 2.144288537610557 0  1.763
[...]
<PointData  Scalars="f_4471-1"> 
<DataArray  type="Float64"  Name="f_4471-1"  format="ascii">3.3770351764973816e-01  3.3861013876578144e-01  3.4765352323749155e-01  3.3294483472984920e-01  3.2952918629577843e-01  3.2512092925567376e-01  3.3921301370237661e-01  3.1357040664127400e-01  3.9005151742581118e-01  4.1830535236000521e-01  4.2707323704508493e-01  4.3772826648709490e-01  4.3445413233862457e-01  3.9689930408678603e-01  3.6678230559278702e-01  2.6415434999759269e-01  3.3525663880988388e-01  4.1670584493630769e-01  4.2969284500082355e-01  4.2569604274671330e-01  4.4174248824713891e-01  4.3617365900992866e-01  3.9379386240978731e-01  3.5599998184288034e-01  3.4433636045240013e-01  3.2428906565414589e-01  3.3530655410854021e-01  3.2278214606295424e-01  3.3417360430604698e-01  3.3805192565461301e-01  3.3558760160799944e-01  3.4463832287395862e-01  3.3706908743229880e-01  3.3819267999298502e-01  3.4170669221463407e-01  3.5631142694774515e-01  3.5244898952928044e-01  3.5384100757792208e-01  3.6071161864463525e-01  3.5772482712953491e-01  3.5641693258577278e-01  3.5703783968978781e-01  3.6047202818497842e-01  3.6593257560641890e-01  3.5319277968424778e-01  3.5292517598158873e-01  3.5547220492614784e-01  3.6961874642320836e-01  3.5724014222699813e-01  3.5409487563830683e-01  3.5328915851525700e-01  3.5910694972852925e-01  3.5180981538246514e-01  3.5268439457234196e-01  3.5700035098264787e-01  3.4143431108859396e-01  3.5041091831687166e-01  3.3203496758096851e-01  -8.7790544381585803e-02  -2.2307768717218464e-02  -9.1785006397280197e-02  -9.2134538031679647e-02  -8.0989083052791219e-02  -9.1033920508736613e-02  -8.6606489765047326e-02  -8.7728419365882410e-02  -8.9151633923161264e-02  -7.7513639209505006e-02  -1.4905916539967244e-02  -1.0030119278565346e-01  -4.1491167800392038e-03  -2.7262588027051064e-02  -2.2200192824373029e-02  -1.8404260974830292e-02  -1.8106874644095706e-02  -7.5720068563833828e-02  -7.5172131884863935e-02  -8.7887246404422543e-03  -6.0453233639885522e-02  -1.2457557143321711e-02  -6.4436295372739122e-02  -6.6757511261267303e-03  -6.8202175017855818e-02  -6.9055465479848394e-02  -1.8721805199508144e-02  -2.2720046560564349e-02  -3.4615201045716257e-03  -2.5215481110909974e-02  -2.3438243567867875e-02  -3.4978981513149446e-02  -2.0057209088516700e-02  -1.8985854814454885e-02  -7.8859582942244794e-02  -3.0627682748950343e-02  -8.5316600732986275e-02  -2.9211646438655092e-02  -3.2895808423924075e-02  -8.8830302171965053e-02  -3.1263029862012903e-02  -9.9496490947735938e-02  -9.6939842672269946e-02  -9.0540392809094164e-02  -4.0771998148246384e-02  -3.7618020415598211e-02  -4.0227914665905355e-02  -4.0997428466574122e-02  -2.8577920674311350e-02  -3.8783795389385464e-02  -3.4699555468038878e-02  -3.2698540306713555e-02  -2.7692461841542945e-02  -2.2283833158615558e-02  -7.5260277557984728e-02  -1.9621598034309438e-02  -2.9960136467979098e-02  -3.2991132587016518e-02  -1.8650410211653024e-02  -7.3919153718266239e-02  -1.4759248730871578e-02  -7.2223788434070277e-02  -2.0852058707972600e-02  -1.5079385698137033e-02  -7.5047165182894712e-02  -2.5656691091721105e-02  -1.2077883472457496e-02  -3.1339052975226774e-02  -2.4603243345536402e-02  -7.3077738340695003e-02  -2.1080865493327852e-02  -2.7780393717182036e-02  -3.3932491240552434e-02  -2.7035028897503536e-02  -3.6627755058923711e-02  -3.9944562958482373e-02  -3.2763120679321446e-02  -9.2582314680204239e-02  -4.6279825963012444e-02  -4.6600441176846016e-02  -4.5473209095451841e-02  -4.3880156415995963e-02  7.8760979831294831e-01  4.1902858159114591e-02  4.2934044661178158e-02  4.0526188976390626e-02  3.5138717590011102e-02  3.1426022880610846e-02  3.0852900376154575e-02  3.2332693550938589e-02  3.5963967923967513e-02  3.9940756056548704e-02  4.4924372622250054e-02  4.8352516779558014e-02  5.2142204119769442e-02  5.3664328036097199e-02  4.4085783096751388e-02  4.3069978438885798e-02  3.5465313468439098e-02  3.9888892912624437e-02  5.4865058926944536e-02  3.4895478377774944e-02  3.0798062410090955e-02  3.2376417472660853e-02  7.7286890370731132e-01  7.7611840971816659e-01  4.2506074167188969e-02  8.0602207384593616e-01  2.9661100623480159e-02  7.6675756461011568e-01  8.0520257034951359e-01  3.3507697531584245e-02  3.1471294437642384e-02  4.2567835448836355e-02  4.2389223158098309e-02  3.9942404722243981e-02  2.6836922578102516e-02  3.4455852777468626e-02  3.4716060000549040e-02  2.6200827347993332e-02  3.9134018010889018e-02  3.0613087440139394e-02  4.2177482378634300e-02  4.7682887229384324e-02  5.2506089164775054e-02  3.0513832295320967e-02  1.3660605186281821e-02  5.0079807312512922e-02  3.2583615624413823e-02  2.8480358716494524e-02  7.6525336678975053e-01  3.9011670615387073e-02  2.9292464842799827e-02  4.7719774339858967e-02  4.0560627814281575e-02  4.2266124047864194e-02  4.1521618203999792e-02  4.9908108703280822e-02  4.3429696648497988e-02  3.2254571359153800e-02  3.6296303571456398e-02  5.1289012062871023e-02  4.2753797696059845e-02  4.5273240885876753e-02  3.6004508949418694e-02  3.9761214010406720e-02  4.7809869335749405e-02  1.7311194218115521e-02  2.9847671539382913e-02  2.9953471030196605e-02  5.0053618376459198e-02  5.3351139255831202e-02  3.0235194553052250e-02  4.0171043133441497e-02  4.0274513761834517e-02  3.9510209684367616e-02  3.7972341356354362e-02  2.5528807742743562e-02  3.5728809159787760e-02  4.1792235012905174e-02  2.7917771750068127e-02  3.9823789295503835e-02  3.7083837807545060e-02  3.7367997158771538e-02  3.1129425403939821e-02  7.1960261383674055e-03  3.3762735127374585e-02  7.7528153114605758e-01  7.7899705166262334e-01  7.9655835803168173e-01  3.0782956316392392e-02  4.4150377813833457e-02  4.4022937774231559e-02  3.3852731040187913e-02  4.0870962616000935e-02  7.5482693980333970e-01  3.8895529404365956e-02  2.9414581804855747e-02  5.4198733254642535e-02  4.9300986351345527e-02  5.1015419962426596e-02  3.4140577078406890e-02  4.6507048899849475e-02  3.9445524269057022e-02  3.2595404316914656e-02  3.4723125002173394e-02  7.5593266764065392e-01  7.5127547463516930e-01  2.6634925034148011e-02  3.1966614020885444e-02  5.1475322760735048e-02  2.5188226331718216e-02  4.3406323776793550e-02  4.2568638821522821e-02  3.8661931912062804e-02  3.6532980926593912e-02  4.2098320286449019e-02  3.5673719117585906e-02  4.1483869679813316e-02  4.9062265889314317e-02  2.6010303831920156e-02  7.7582457333293076e-01  2.7893520524321428e-02  3.0647251293370068e-02  2.5607771155944866e-02  3.7840939335048333e-02  3.3132032305029029e-02  3.2991111878327269e-02  3.8070247057726457e-02  5.3320867888877549e-02  4.1968185376703028e-02  6.1517767509837555e-02  3.1774476450470303e-02  4.1133380183464678e-02  3.5568561971817854e-02  4.3042779423428594e-02  2.5217569377047597e-02  4.0835647397129408e-02  3.6254576906467398e-02  8.4479149874722670e-01  8.4370701477662835e-01  6.7609517940619618e-02  7.7673367119246350e-01  2.6278681759087763e-02  3.0555455577093261e-02  2.3717667943526515e-02  5.0927164563673889e-02  7.7197116139290700e-01  3.3715640037928735e-02  4.5592020694485293e-02  3.0800551454865259e-02  3.0763832728058719e-02  -1.2571857603391979e-02  5.2138778174028497e-02  3.5316000748167715e-02  7.9147545805540420e-01  4.4454814621274250e-02  7.4484229802243174e-01  7.4847515122999231e-01  7.8934159924719038e-01  3.1913238563234178e-02  2.8639295028467248e-02  7.8977186027167467e-01  4.0544040165155282e-02  3.7260001997560077e-02  8.3282616139545884e-01  3.1001713064881579e-02  4.6251484424976320e-02  7.4041090470511461e-01  4.0200160163370115e-02  2.8034008076645280e-02  4.0331210486688460e-02  7.7815996838901202e-01  4.1420634766509326e-02  3.6964400045573449e-02  4.7866426311921145e-02  5.0201510725038236e-02  3.4781357794177688e-02  3.9224088342138676e-02  3.1421953542544283e-02  3.7517554973137121e-02  3.0965435615004495e-02  3.6965518664862161e-02  2.0852550658719052e-02  7.3199597239243930e-01  4.4106300006075766e-02  3.3628994520453606e-02  3.1351230952890149e-02  6.5231088659698552e-02  3.7607688849879931e-02  4.4004496780017228e-02  2.7028511433482477e-02  4.3652141296563834e-02  3.6755842234714890e-02  4.9032011648726587e-02  3.4372295873650059e-02  4.1506359943983474e-02  2.7835014091018365e-02  5.5358944874544153e-02  3.5310983698680479e-02  4.2253254263682621e-02  5.0846443503657093e-02  4.8999198979819067e-02  4.7736484655356792e-02  3.8084791197754271e-02  2.9782726920627063e-02  6.3218296336682911e-02  7.4475782021912029e-01  5.3322303002303610e-02  2.9094012673787674e-02  3.4365174385916096e-02  2.3564439277395936e-02  3.6041604123591135e-02  5.2363882077173483e-02  4.3517973997205195e-02  4.2308903753289780e-02  3.7774020082591092e-02  4.7126363563040764e-02  4.0594134587410874e-02  2.8841619114056014e-02  4.3481739853984708e-02  4.1828094140438220e-02  7.4569045128984235e-01  6.4920579678427903e-02  6.0799475128318299e-02  3.0347099863080873e-02  2.5172455735006479e-02  3.3076640233128313e-02  3.1955363290024824e-02  2.4076369588069347e-02  5.4845919026358450e-02  3.2677652110597172e-02  7.5181521588189559e-01  5.3842887111549054e-02  3.8563054385115619e-02  4.3547075269979835e-02  4.6101906748854088e-02  4.5453153437848323e-02  4.6136805617372885e-02  6.5018690947244787e-02  4.8427340880860995e-02  5.4327470325519205e-02  3.4741289084437348e-02  3.0518428390464092e-02  4.2815136236070465e-02  4.7072779766946259e-02  3.7101090248947505e-02  1.9869164833735308e-02  7.5469381666523339e-01  3.3199638308813360e-02  2.9682038570545556e-02  3.5271322368383186e-02  3.2579557443729090e-02  4.1555741653398780e-02  4.6298646007388512e-02  3.0452819023518030e-02  5.3828662166842144e-02  2.5562662357543356e-02  3.5944250539795004e-02  4.5524326431456548e-02  2.6250103729428396e-02  3.8432657890148984e-02  4.3437654891661799e-02  7.6973811822218768e-02  3.8711535322342595e-02  2.3570701210223470e-02  3.1836998827570739e-02  7.8975287309997821e-01  7.8588031973258377e-01  7.8827884351025912e-01  3.6864678700963271e-02  3.4648100611283240e-02  7.6848096192565885e-01  4.3523778631642404e-02  4.2851814509844988e-02  3.0359125148865244e-02  4.1038721848184266e-02  5.2358362083878660e-02  4.2163959633113195e-02  5.4993050194532329e-02  3.8907440691400237e-02  2.2070689832237419e-02  1.0444550195784416e-01  3.2585752421422649e-02  4.2948954076725693e-02  1.7882949242513640e-02  2.0615221326163349e-02  2.8949317505542058e-02  4.5422563683027425e-02  3.9216042893341650e-02  3.7668633915607361e-02  3.5797898785866443e-02  3.6128909497426226e-02  2.9747540250201845e-02  3.6088213212221713e-02  3.2603457114098948e-02  4.1198503060698402e-02  3.9990789728670408e-02  3.7459443003414812e-02  3.9971601489845368e-02  7.4808339905019908e-02  2.1881582667362991e-02  2.9419560366777991e-02  4.4004130892795791e-02  3.4624898049405002e-02  7.6574341650148744e-02  3.0026472687027822e-02  3.1988375193561694e-02  4.9659739010850808e-02  2.4300668403976138e-02  4.1825764029042228e-02  5.2881557962414741e-02  7.5754626636684308e-02  2.5426377711692996e-02  4.2575536628544984e-02  4.1848717509114709e-02  2.7493888358813213e-02  7.6953235509002427e-01  4.4219104622385895e-02  3.6866114436033048e-02  3.5612840703885623e-02  5.3486267375672192e-02  8.3708061273674347e-02  4.0150603900873445e-02  4.1811419231773367e-02  4.3967726262902469e-02  3.0614674463782226e-02  3.9740687859594462e-02  4.6760624909771557e-02  7.6175308736153868e-01  2.7708456105329335e-02  5.1764597117933603e-02  5.2085511809396537e-02  8.1324023178931026e-01  7.1828295904568584e-01  7.2631476434470765e-01  2.0106625459516594e-02  3.5426628217243093e-02  7.6104427743493486e-01  2.9068256752520952e-02  3.0360928103046764e-02  4.0048202836351771e-02  3.9403379477792266e-02  2.5819023888944352e-02  7.2245642810991229e-01  2.6160548393269516e-02  5.1899732555967755e-02  9.0062287848206690e-02  2.2668928879104645e-02  4.0560352590777511e-02  4.2547196231409304e-02  2.9387327312180675e-02  3.7051967374216635e-02  2.0050380886705483e-02  3.4397719239752496e-02  7.8216607160628715e-01  3.3750349544521760e-02  7.7996258952683106e-01  8.1938231300670894e-01  3.2603672037093391e-02  7.0625031120829707e-01  2.4999170349141647e-02  3.5856131662471938e-02  2.4076856515630227e-02  3.1221578036058621e-02  2.8995728691563121e-02  3.0319540816478335e-02  3.3054313477483457e-02  1.0272145446471612e-01  2.6706002388245217e-02  3.6764745187782569e-02  3.9189822037056239e-02  3.7208885057866521e-02  9.4313214970910414e-02  3.0758032396463176e-02  2.7274532556590410e-02  3.5243826681613584e-02  5.3959782013652716e-02  3.7827142806066416e-02  3.2838793197888363e-02  3.1370416334918584e-02  5.0960319127158593e-02  4.1544302690398334e-02  4.1848296969532219e-02  3.0778321277691544e-02  3.4324482334214576e-02  7.6580560681583854e-01  7.9462562289068617e-01  7.7657984164648897e-01  7.8178534737268812e-01  6.8579021974150456e-01  8.0722589535530676e-01  7.1346872974427300e-01  1.2432864356264189e-01  6.9675823003951831e-01  3.0987433170012551e-02  -1.0409297900111499e-03  2.9849220377839249e-02  3.3652999722481675e-02  4.5150655050809674e-02  2.7005821531377192e-02  3.5918888926906950e-02  3.9775594889643044e-02  4.4180627332829854e-02  3.0894499562860799e-02  7.0579925833687707e-01  7.6711460186660818e-01  6.8478142918745355e-01  3.2803113277859133e-02  3.0069262451143303e-02  4.1169384190481481e-02  5.9826650830392902e-02  3.9390827471584310e-02  3.4512498670441587e-02  3.5492111860183403e-02  2.7614749506626027e-02  7.7936594371126644e-01  1.1669957220974621e-01  2.8002460294708799e-02  2.7790016970039095e-02  5.4295968349657893e-02  4.3661272586885173e-02  3.0534643679877384e-02  2.9408754569393507e-02  3.9396102933891820e-02  3.1560239133430812e-02  2.4328258246935443e-02  3.4795706937436152e-02  3.1434860694116558e-02  3.0720685363368465e-02  4.1256094115234399e-02  2.1066215078069529e-02  8.1166868325715014e-01  2.0236455971511708e-02  4.7691704852399069e-02  6.7741751274968987e-01  2.8207158271848845e-02  3.1865207304769126e-02  3.8720284075942052e-02  3.8303306113410457e-02  2.9546890035340244e-02  2.4604643649820734e-02  4.2429841742153911e-02  4.4231400007949860e-02  4.3804131406457100e-02  4.3320849331939491e-02  7.8706149977646267e-01  3.2277465946831896e-02  3.5673207936289211e-02  3.7782635056214028e-02  4.1702004447047934e-02  4.1407344378768106e-02  4.3395646142091258e-02  4.3773119235398519e-02  3.2617997724796073e-02  3.2962216110167489e-02  2.9518335805464896e-02  6.7657391827282376e-01  4.5844016603274529e-02  3.3444009180173359e-02  3.9583056506139608e-02  7.7265844014026042e-01  7.8638216509476055e-01  2.6200059338386174e-02  7.6044796470578746e-01  3.4601373926709894e-02  3.7330745282170813e-02  3.1452236416346507e-02  5.4241974000749246e-02  3.0395574446724433e-02  3.0325357847735667e-02  3.9909533551936445e-02  2.9043234642069149e-02  7.6626761111049768e-01  2.3083073719239504e-02  5.3173910174721006e-02  5.4114543722371233e-02  4.9588034326283031e-02  4.9423313836987552e-02  5.0973423312276965e-02  3.1048224148659632e-02  3.3008242040248797e-02  4.4411336477426830e-02  5.0942063451375377e-02  3.8208640260263001e-02  3.2860246577930893e-02  3.1829530295309716e-02  4.6597560560121085e-02  3.2142231439873652e-02  5.4538711845636557e-02  4.9831828085937183e-02  2.9679278994897727e-02  7.8474144149128577e-01  7.7339220011348819e-01  4.3001774701441418e-02  4.7728921570074724e-02  3.2337930359077671e-02  3.2776149464129781e-02  4.1863135203080826e-02  3.3332627379925643e-02  3.4438140865583985e-02  3.3578734263398226e-02  1.0958072145016826e-01  1.2228736433721107e-01  3.4751651449160544e-02  4.3276434664609648e-02  4.1352662471656559e-02  4.1520491287251458e-02  3.9664426715195530e-02  2.0542656297828796e-02  4.2393007074784217e-02  4.1354110045302567e-02  3.9892029964909412e-02  2.0759507951439733e-02  4.3379420532571836e-02  2.4732154485287244e-02  8.2800963047194831e-01  9.7456787466922046e-02  3.4064338611608479e-02  4.4162900470215254e-02  8.7586659199362177e-02  8.2366420053413644e-02  2.5065693985056557e-02  5.0794305099102315e-02  3.7755839842106474e-02  2.1873288553116255e-02  7.6356609522595487e-01  4.6935577649458722e-02  5.3189330230027879e-02  3.5668434123543535e-02  1.3865384646236378e-01  3.8623308999717568e-02  2.5370930307561119e-02  4.8031882271666611e-02  4.3163557747067809e-02  4.0896905963182517e-02  4.1179043448151514e-02  3.2523557336960801e-02  3.1640026248568980e-02  2.8088318832941779e-02  3.5792963221260174e-02  8.2562808381769681e-01  2.8081329622832912e-02  4.4107796921301623e-02  3.4754061661559782e-02  1.9461670582389168e-02  4.6330267682108600e-02  6.5365575927525910e-01  7.6984439967820184e-01  3.1228556469047635e-02  2.7630570528931472e-02  4.0585275122163429e-02  5.6332611583232224e-02  5.2890324214085627e-02  1.3351464241703992e-01  7.8127170939273605e-01  7.7386845096618895e-01  7.7035458752891850e-01  5.3399673236481073e-02  2.6515543723677697e-02  4.1774635347131890e-02  4.1229156176858454e-02  4.2206342437839682e-02  2.1707240559818181e-02  2.0494464581517401e-02  2.8061351522109156e-02  6.7175015437034591e-01  3.4509826301628140e-02  3.7211243936792697e-02  9.5353662418896007e-02  9.4762659491197554e-02  2.3822995598126940e-02  3.0262195169495850e-02  1.1561809526223854e-01  5.1364098893188763e-02  7.6694226926675102e-01  3.2734940900169700e-02  4.6153558216458355e-02  4.6336585009903772e-02  3.0390343625836248e-02  7.9353651509563006e-01  1.1186723024934019e-01  3.5795660446901544e-02  4.4186487876395460e-02  3.2941689183306894e-02  2.3015313482308255e-02  4.1526706477850901e-02  2.6845715298634446e-02  2.6943356829828572e-02  4.9757688340610388e-02  4.3622169476654836e-02  4.5550296730736017e-02  3.9014786943991978e-02  3.5678464586093583e-02  3.7495722576901966e-02  3.9800981888299218e-02  3.1761478684042714e-02  2.7128466783256595e-02  3.1137992165294844e-02  3.2681372849032199e-02  3.1075587575068460e-02  7.1778921899970660e-01  4.1253838837638113e-02  2.6918362028719719e-02  2.1048665207092573e-02  1.1923281795363301e-01  2.0796790148024727e-02  2.8929915245651947e-02  3.9954362526109649e-02  5.1823201789551118e-02  3.5973478139192307e-02  5.3110914226340664e-02  4.1926416907659941e-02  6.3602166680213601e-01  3.6175902571019651e-02  4.9626259790408168e-02  5.0468771747425659e-02  5.3563186964882749e-02  3.9335970044242545e-02  7.6401480957156753e-01  4.0900752035170997e-02  1.2176222564867922e-01  4.7373561463123229e-02  4.5045871725657397e-02  4.5132348552372616e-02  3.7389204026284963e-02  3.8133630587478130e-02  3.6282960792110658e-02  2.0524883968258686e-02  3.1731350380245278e-02  5.1249463807381018e-02  5.1690424992948757e-02  3.5971509057061507e-02  4.7400076509666565e-02  4.7895712425855809e-02  7.9427952499701227e-01  3.2679812819193833e-02  2.5518641705144694e-02  3.3482486582802215e-02  5.7754323013465263e-03  4.0708409542755709e-02  6.6866804692067583e-01  4.3771979717899610e-02  4.6909327844183786e-02  8.9117113895084477e-02  4.2816848035449780e-02  4.3239532948839234e-02  3.3457216981809451e-02  1.3411388777199254e-01  1.7848231514317834e-02  3.0599875277684596e-02  -3.5930688233994118e-02  6.3114039394473331e-01  3.0179110903132599e-02  6.5266065761376102e-01  3.0594139969854404e-02  4.2872608100182182e-02  3.7188704012690990e-02  3.4115227691448619e-02  7.8597122939773778e-01  2.7800705171628075e-02  4.0889754918719219e-02  3.7840303408964958e-02  4.8695456418529071e-02  3.2852577847379952e-02  3.7480102285719283e-02  3.7443886374304299e-02  3.4440182749156889e-02  3.3052944005685689e-02  2.9565838227532178e-02  7.7107227450536053e-01  4.3560109654988487e-02  7.4676000600473280e-01  4.3600829408408689e-02  4.0963357045507741e-03  5.1512637260493661e-02  3.4000041617804400e-02  3.0958664509555683e-02  4.1303676249593552e-02  8.2235238671193933e-01  8.0248987914535808e-01  3.9931133566518208e-02  2.0764733353085745e-02  2.9507504268156837e-02  3.7856340861325895e-02  4.3639351096508606e-02  3.1594431411098516e-02  4.1107524204372817e-02