<?xml version="1.0"?>
<VTKFile type="UnstructuredGrid"  version="0.1"  >
<UnstructuredGrid>
<Piece  NumberOfPoints="1417" NumberOfCells="2668">
<Points>
<DataArray  type="Float64"  NumberOfComponents="3"  format="ascii">-0.9966019147226005 0.2795842602721944 0  -0.9931285994392469 0.1699598996116979 0  -0.9772498203806786 0.0610517641494209 0  -0.949119895820338 -0.04575440691220412 0  -0.9091600517066553 -0.1487499026596447 0  -0.8578149934189466 -0.2467344905857584 0  -0.7959419794425663 -0.338375204070587 0  -0.7248272546007534 -0.4219357436425962 0  -0.6458224386620001 -0.4965649631173071 0  -0.5619714010116523 -0.5600943443142586 0  -0.47471908080594 -0.6132377066686452 0  -0.3834158811040712 -0.6567256978481043 0  -0.2891767742375498 -0.6905023714039246 0  -0.1928802760936087 -0.7146210035695151 0  -0.09628041330998667 -0.7288320167851338 0  -0.003324580190174386 -0.7333344059479269 0  0.09003839889039568 -0.7287192882573241 0  0.1859541970656306 -0.7144066138274797 0  0.2815197404000926 -0.6903040995386374 0  0.3751460865319542 -0.6565115544832194 0  0.465922274826355 -0.6132065438149383 0  0.5527391956397872 -0.5605521334699107 0  0.6358559469438786 -0.4977098541954325 0  0.7137311907624914 -0.4248794902121853 0  0.7852148131378343 -0.3420393833429601 0  0.8477320341685746 -0.2508559235633164 0  0.8998163713690039 -0.1531627246656221 0  0.9401420952191851 -0.05093976909188026 0  0.9689991436132408 0.05574219724593333 0  0.9856823292021215 0.1652567178708892 0  0.9898522131331897 0.2745700152485175 0  0.981718408883519 0.383903545724285 0  0.9613214188303466 0.4918174306394504 0  0.9288930375148272 0.5967151341365813 0  0.8853516763714482 0.6964107086610832 0  0.8307749072583313 0.7908225745363167 0  0.7660440058511461 0.8786063540574193 0  0.6915204422760892 0.9592431770794285 0  0.6090855378613442 1.030695285308556 0  0.5192387981042966 1.092664469166639 0  0.4230095039681421 1.144497949533024 0  0.3217956544890478 1.185381553867205 0  0.2169205106693529 1.214969364329353 0  0.1089270931866734 1.233046810810058 0  -0.0008884554670780166 1.239175449870699 0  -0.1098233573952318 1.233455777414141 0  -0.2177046587485257 1.215857160514697 0  -0.32335698672318 1.186485921407513 0  -0.4248749083476662 1.145905289038412 0  -0.5212032623975903 1.094544424822813 0  -0.6111156370305384 1.033148198289687 0  -0.6941354820541018 0.9619841788513909 0  -0.7685642374353335 0.8823043230109842 0  -0.8340205331311262 0.7945940643391232 0  -0.8892167124559091 0.7003616533290404 0  -0.9335752702209893 0.6003190228582068 0  -0.9664452901997085 0.4963945023331096 0  -0.9876284780766806 0.3887675158458044 0  2.640870336732664 2.53715977899439e-07 0  2.633128637961082 0.2021568687513865 0  2.609919989513487 0.4031256863591995 0  2.571402499589578 0.6017313985303081 0  2.517797442662377 0.7968031442357137 0  2.449413598621106 0.9872010526531133 0  2.366657063977624 1.171806252688243 0  2.270012066524794 1.349532965681889 0  2.160045665698277 1.5193404956856 0  2.03740377954354 1.680234379166821 0  1.902811355231919 1.831269156795602 0  1.757039375513344 1.97154832767404 0  1.600970970941893 2.100273547435687 0  1.435494998023266 2.216661889438226 0  1.261602563126769 2.320042549308491 0  1.080300163912151 2.409811369461071 0  0.8926637435847864 2.485436062912951 0  0.6997819948999885 2.546469026609274 0  0.502798851143006 2.592564896987554 0  0.3028632113759218 2.623454965081682 0  0.1011537522692036 2.638935243527502 0  -0.1011503848828569 2.638940925063036 0  -0.3028643776151315 2.623448497819653 0  -0.5027966076871305 2.592574043468624 0  -0.6997819674367023 2.546470191139082 0  -0.8926596485702993 2.485430246030457 0  -1.080303669763482 2.409809941899898 0  -1.26159957589149 2.320044089706871 0  -1.43549679863191 2.216664079161776 0  -1.600966223084386 2.1002724013273 0  -1.757044317368007 1.971555194923726 0  -1.902807381595561 1.831271986968871 0  -2.037408460745884 1.680240298968964 0  -2.160052577062612 1.519344955250505 0  -2.270013137155668 1.349533978833534 0  -2.366664286003541 1.171806716199805 0  -2.449414149437204 0.9872015373913898 0  -2.517802489444243 0.7968076479640166 0  -2.571409769144329 0.6017324211164498 0  -2.609920362120566 0.4031256525983087 0  -2.633127841210535 0.2021593228989394 0  -2.640868561548383 1.599520893201213e-07 0  -2.633119993611682 -0.2021580962575512 0  -2.609919889140531 -0.4031286830359967 0  -2.571408982461905 -0.6017311420709969 0  -2.517801137964187 -0.7968087967549529 0  -2.449418675890786 -0.9872052171838708 0  -2.366662899586237 -1.17180780129196 0  -2.270017294755344 -1.349538755417933 0  -2.160049645797432 -1.519346536580064 0  -2.037408002480666 -1.680238055854099 0  -1.902808476625991 -1.831270606124493 0  -1.757046079330373 -1.971553463630215 0  -1.600966782210169 -2.100271241635734 0  -1.435492245054869 -2.216656435642783 0  -1.261597757211964 -2.320044506291829 0  -1.080298950333518 -2.409810401103317 0  -0.8926631393692149 -2.485434481489648 0  -0.6997854177908968 -2.546475365030936 0  -0.5027980467807931 -2.592566016650653 0  -0.3028636290685439 -2.623454460019857 0  -0.1011522406007674 -2.638934279590909 0  0.101151174611922 -2.638940216392077 0  0.3028659789018049 -2.623454006928777 0  0.5027982181318128 -2.592565772543201 0  0.6997854030869239 -2.546475372936072 0  0.8926625364141185 -2.485437093171575 0  1.080301825957503 -2.409809637140345 0  1.261597926141847 -2.320044796176116 0  1.435492089246134 -2.216656928937461 0  1.600966873314045 -2.100272033900668 0  1.757044201920972 -1.971554872020415 0  1.902808777718215 -1.831270033656681 0  2.037406889275202 -1.680240714896033 0  2.160052373597819 -1.519343528725924 0  2.270016937676588 -1.349537966198991 0  2.366663081819389 -1.171808417485282 0  2.449413283662741 -0.9872009618263844 0  2.517802262816294 -0.7968039242854572 0  2.571409086141518 -0.6017329150765115 0  2.609926340275555 -0.4031275270032224 0  2.633127090315942 -0.2021604003812915 0  -0.004276232289744183 0.2575102524876126 0  -0.1279590792964008 -1.68342341924611 0  0.865970520445256 -1.468928419768484 0  -1.058604449763249 -1.34841554338529 0  1.534503953936824 -0.8410213985428372 0  -1.662440539735082 -0.6043225640587058 0  1.802596487903854 -0.05853554596313112 0  -1.814848418701748 0.2006841984870555 0  1.702535223376491 0.7536473996319474 0  -1.603245941194644 0.9756522675613817 0  1.262838474035834 1.425703176416865 0  -1.120110646316569 1.554856750400445 0  0.5877318522544663 1.845089293116452 0  -0.4577061835401566 1.882365726443487 0  0.451985660887765 -1.951957746237961 0  -0.7268912991851598 -1.877673211670599 0  -1.639604831394591 -1.252460137950493 0  1.440241236234278 -1.499156783551812 0  0.0616259819753228 1.766626527557224 0  0.3292055718620305 -1.418378665948405 0  2.016961375684133 -0.5636953512843699 0  -0.4828735024644809 -1.242846193594018 0  0.4873480922229227 0.3515577269835728 0  -0.50389371317633 0.2465346278318103 0  0.9590139852392752 -0.9405297173799352 0  0.3054511802184448 -0.120103346980167 0  -2.099640902686996 -0.2471018418650012 0  -0.2572237202274574 0.680595896551766 0  -0.2252566006373535 -0.1759341349597858 0  -1.135268549703101 -0.8032907147238052 0  2.083243861505071 0.3931467922214201 0  -0.0001815986441147365 -2.161643158766138 0  0.9352589769103453 -1.949912688722887 0  -1.197467828125396 -1.806143097740835 0  1.372762284791182 -0.3570977297963805 0  -2.02798997665653 0.7217357169250231 0  1.808941961075473 -1.21849631826923 0  -1.444215023864572 -0.1539513609891848 0  1.728667913379383 1.310228739527506 0  -1.973401945770233 -0.9423177672731343 0  -1.633132968931583 1.447911093244846 0  1.071561648144923 1.874842859570024 0  0.169828264858786 2.201163746806989 0  1.481364051674115 0.3077190830512966 0  -0.05975740598097073 -1.245075627773381 0  -0.9142549014606699 1.976188955515844 0  -1.453755894680479 0.5129619486820093 0  2.210569848838676 -0.1877605589614961 0  0.2118073547827823 0.7329146212438739 0  1.279971555912323 0.9521967575006788 0  -2.226500012838601 0.144036822736237 0  0.8086676580339205 1.443615315362239 0  0.5444034755455676 -1.062501246168069 0  -1.152425955430721 1.106649539531862 0  -0.8116743140330068 -1.031700184252427 0  -0.6736318769208708 1.501553949287524 0  -0.3589530272644849 -2.007197329040018 0  2.102296557160178 0.7919907199761653 0  -1.970996160691784 1.105075696899076 0  -0.3482358951084369 2.248426654329178 0  1.430402040217537 1.766542575535404 0  -1.318771042431196 1.868407762336842 0  -1.570903195056803 -1.633247623958079 0  1.295770862434406 -1.140336513767395 0  0.3667487273703517 1.549029257069143 0  -1.185334257769604 -0.4354951585681929 0  1.069819094555652 -0.5877721474780409 0  -2.024330063787764 -0.5926223245166807 0  0.5400981023385431 2.215145990033089 0  -0.2525355334085314 1.578006085226241 0  2.067119534462085 -0.9393048173521265 0  0.6958965642272714 -2.202088411572815 0  0.3270266981220591 -2.278105237665226 0  1.306621517049843 -1.85925110325011 0  0.991225525029473 1.14484170888772 0  1.317149212728814 -0.01260516565895088 0  1.294702682528677 0.5998674310237717 0  -0.4770614117844326 -1.60491194765198 0  -1.472772353506633 0.1784035533562692 0  -0.6382491960294669 -2.210339874261592 0  -1.307347336697422 0.8108711078033809 0  -1.312948153234139 -1.108970702503085 0  1.721016389264906 -0.3868558657493313 0  0.2065528988806665 -1.059989143470285 0  -1.642575264490033 -0.9272329179938599 0  0.6112875501848625 0.02739254692184527 0  -0.5553182161028063 -0.09510187602980671 0  0.05503868399203742 -0.3646437493506328 0  -1.78428880008845 -0.1288121159734975 0  0.6884351620789274 -1.735041695248918 0  0.1397630492739911 -1.864998943853076 0  2.013603031351013 1.123097340770374 0  -0.7477760434321757 -1.437582456443079 0  -0.5805421570472101 0.5733163751618833 0  -1.00133932806617 -2.081885903560106 0  -1.962783610946355 -1.26184687729274 0  -0.1609720818009746 1.992642961239253 0  0.8174273915163737 2.063163578190274 0  -0.6435814003660902 2.138212282455864
[...]
<PointData  Scalars="f_4449-1"> 
<DataArray  type="Float64"  Name="f_4449-1"  format="ascii">3.3801596901655262e-01  3.3898001113100507e-01  3.4785605965888722e-01  3.3284193347993368e-01  3.2906350936301926e-01  3.2511732454498160e-01  3.3994242905645805e-01  3.1136379185987995e-01  3.8565830930639672e-01  4.1606307995830638e-01  4.2610100248683125e-01  4.3756861946230469e-01  4.3431906408741905e-01  3.9828840656233583e-01  3.7033903305618016e-01  2.6627510137982086e-01  3.3615296031117936e-01  4.1937526476045228e-01  4.3156788108654276e-01  4.2579504014156722e-01  4.4152069842341291e-01  4.3322976879869574e-01  3.8983171785419329e-01  3.5290599177818366e-01  3.4377840880737115e-01  3.2360824502152458e-01  3.3599793872072953e-01  3.2354271057161454e-01  3.3318352641184290e-01  3.3795194826903552e-01  3.3612850033529529e-01  3.4471264464236961e-01  3.3662114972070856e-01  3.3828074792660279e-01  3.4235918403617382e-01  3.5667185330760115e-01  3.5238550559523202e-01  3.5372104832801404e-01  3.6117996992167278e-01  3.5787072070485210e-01  3.5630888149178119e-01  3.5735035857601860e-01  3.6102640136087250e-01  3.6558974819100393e-01  3.5306126591406062e-01  3.5362661897066028e-01  3.5553816416273126e-01  3.6938941769602485e-01  3.5746816212010191e-01  3.5439247727545586e-01  3.5321530053686911e-01  3.5904172575225191e-01  3.5201496990048181e-01  3.5284525819845858e-01  3.5696271313647421e-01  3.4154481676682458e-01  3.5056154130088735e-01  3.3183562622578594e-01  -8.7845988168659461e-02  -2.2293144887216350e-02  -9.1828512099795465e-02  -9.2118967673565491e-02  -8.0940222811481680e-02  -9.0933345947306843e-02  -8.6513773080366035e-02  -8.7716597271544669e-02  -8.9091153529843536e-02  -7.7367237161210745e-02  -1.4708109514402691e-02  -1.0008048540495833e-01  -3.9206857522275625e-03  -2.6950726836445806e-02  -2.1936512615593332e-02  -1.8125287149707351e-02  -1.7812253121575035e-02  -7.5559637198891264e-02  -7.5043595287636336e-02  -8.5177253752634092e-03  -6.0257136110599629e-02  -1.2175658015316889e-02  -6.4247723753538322e-02  -6.4009446354125884e-03  -6.7962202432761590e-02  -6.8817430197371882e-02  -1.8423485485720825e-02  -2.2389471564985747e-02  -3.1860731679682389e-03  -2.4926831587453548e-02  -2.3196021754172132e-02  -3.4666031974235470e-02  -1.9834162114311448e-02  -1.8817549302073480e-02  -7.8758965580365520e-02  -3.0495764026433458e-02  -8.5308949871492998e-02  -2.9103793705764592e-02  -3.2809438304630643e-02  -8.8891700009170807e-02  -3.1231776546359433e-02  -9.9544086334572748e-02  -9.7031811384321529e-02  -9.0696497512960828e-02  -4.0797483018255171e-02  -3.7653322514705746e-02  -4.0233947834292114e-02  -4.0983393887498588e-02  -2.8562867167126148e-02  -3.8704100408230600e-02  -3.4602702368104921e-02  -3.2591063470637789e-02  -2.7592631228228956e-02  -2.2199362264879390e-02  -7.5221469629680363e-02  -1.9491587589438180e-02  -2.9794714416231969e-02  -3.2790231725837053e-02  -1.8464125340580666e-02  -7.3798482676781851e-02  -1.4544189469604939e-02  -7.2093812528011753e-02  -2.0638967646338918e-02  -1.4865606632595858e-02  -7.4906854535777043e-02  -2.5400937977688238e-02  -1.1842660418493595e-02  -3.1069396922312267e-02  -2.4383606612293680e-02  -7.3002162088771763e-02  -2.0948657809254752e-02  -2.7652938567276013e-02  -3.3790268994004329e-02  -2.6961594189495623e-02  -3.6557367112985892e-02  -3.9855206046142344e-02  -3.2740771958637699e-02  -9.2700234365442544e-02  -4.6262467649189315e-02  -4.6531067760958042e-02  -4.5404728161418557e-02  -4.3840300502844105e-02  7.8764535687933479e-01  4.2136744000329733e-02  4.3113006799626763e-02  4.0615907671727708e-02  3.5132768068733916e-02  3.1402597472685305e-02  3.0853519629228530e-02  3.2366771754874610e-02  3.6082119390550317e-02  4.0113693699223310e-02  4.5138580196893818e-02  4.8597844603600976e-02  5.2388615631900448e-02  5.3923371751296488e-02  4.4302322069051145e-02  4.3244043555525080e-02  3.5493480905191263e-02  3.9983609843477132e-02  5.5108572506015245e-02  3.5209960259855587e-02  3.0789157649647715e-02  3.2662796672697544e-02  7.7292440697762022e-01  7.7597734751144054e-01  4.2439823400479582e-02  8.0623737979555377e-01  2.9655143991848518e-02  7.6665870096570710e-01  8.0540364722724256e-01  3.3410288904416857e-02  3.1521535060262049e-02  4.2781544225962774e-02  4.2570729828881368e-02  4.0061434240754951e-02  2.6838222568041626e-02  3.4555513680037009e-02  3.4752506778241897e-02  2.6219451469933888e-02  3.9304537227395769e-02  3.0607024688793980e-02  4.2385085934180743e-02  4.7918228654747035e-02  5.2761624985234006e-02  3.0622409278258222e-02  1.4050526368248903e-02  5.0335196687298384e-02  3.2705447805768791e-02  2.8479829104909912e-02  7.6521602771775166e-01  3.9233722190674870e-02  2.9316074068442735e-02  4.7961749703573961e-02  4.0894891939277561e-02  4.2533210753303498e-02  4.1486818511709128e-02  5.0171642053913924e-02  4.3632651919222581e-02  3.2349603850102993e-02  3.6446856056015796e-02  5.1550839136755525e-02  4.2969229733475410e-02  4.5515551358374713e-02  3.6073624151256214e-02  3.9808380174820468e-02  4.8157206298845193e-02  1.7475436894400655e-02  2.9537611977755396e-02  2.9937936536211438e-02  5.0303957064652058e-02  5.3664767862327593e-02  3.0240813230199878e-02  4.0373284048318622e-02  4.0487709403920553e-02  3.9649151766661422e-02  3.8315269500480469e-02  2.5744493427916012e-02  3.5929457799404506e-02  4.2004318434544399e-02  2.7997652464279935e-02  4.0008092485538903e-02  3.7300397726887202e-02  3.7384892968887903e-02  3.1111634905486938e-02  7.9565591702079469e-03  3.3756836147404372e-02  7.7483965488683837e-01  7.7868085781837215e-01  7.9683304592921156e-01  3.0781536063185670e-02  4.4357770464493795e-02  4.4248894071474164e-02  3.3985922561441458e-02  4.1037829522005992e-02  7.5465889055147051e-01  3.9050529103101472e-02  2.9425210034779173e-02  5.4456532780360951e-02  4.9546308429017985e-02  5.1275990533414986e-02  3.4206581264965695e-02  4.6750491807930783e-02  3.9649067102761941e-02  3.2651793383151030e-02  3.4805427051327782e-02  7.5591238756757606e-01  7.5127816414245163e-01  2.6653535686729294e-02  3.2008617689978106e-02  5.2055752321845172e-02  2.5176315551911427e-02  4.3621766868209150e-02  4.2707834704276047e-02  3.8724519654820183e-02  3.6469736664952353e-02  4.2233110133584398e-02  3.5775724513866701e-02  4.1671356991503428e-02  4.7427207453618406e-02  2.5998153599424402e-02  7.7618044830273469e-01  2.7964446373365273e-02  3.0603831205085228e-02  2.5597826347563475e-02  3.7985754896361329e-02  3.3129819863462071e-02  3.3273125604865200e-02  3.8260629410140815e-02  5.3570694202625939e-02  4.2071530017694876e-02  6.1234363039092021e-02  3.1811097774010699e-02  4.1378605682116799e-02  3.5849155769345352e-02  4.3282557592103095e-02  2.5224210596867410e-02  4.1059585606266054e-02  3.6437763608259469e-02  8.4456350800020130e-01  8.4795756153647772e-01  6.7781209365525175e-02  7.7674401467286769e-01  2.6335268509558262e-02  3.0567663393837902e-02  2.4127149607659083e-02  5.1180778187300199e-02  7.7193267147579847e-01  3.3792808798973298e-02  4.5821727458320458e-02  3.0784241203312860e-02  3.0754871416318542e-02  -1.1520789283393434e-02  5.2398299908025227e-02  3.5799999533011280e-02  7.9138681038570013e-01  4.4698515965838181e-02  7.4542712973194991e-01  7.4865720875485320e-01  7.8934387674579332e-01  3.1871663067447500e-02  2.8621873517129675e-02  7.8851847285075916e-01  4.0744752181153657e-02  3.7293335551154050e-02  8.3176740785556913e-01  3.1012038414821204e-02  4.6514616462722105e-02  7.4030458052447756e-01  4.0324473009503356e-02  2.8026523631844109e-02  4.0511458482674241e-02  7.7810323823529193e-01  4.1648605440597890e-02  3.7100757175479816e-02  4.8098802771554698e-02  5.0443201884335591e-02  3.4877693158179846e-02  3.9235393415434160e-02  3.1545170880318378e-02  3.7653426764113290e-02  3.1615989867492415e-02  3.7128976833881291e-02  2.1420966832803170e-02  7.3238135567840779e-01  4.4357026879361564e-02  3.3733356356847086e-02  3.1584360523731321e-02  6.5496092506698619e-02  3.7821044031529347e-02  4.4221685063111929e-02  2.7077368959154028e-02  4.3828066050513051e-02  3.6941440404228754e-02  4.9423114723363783e-02  3.4549082006906914e-02  4.1607261471385805e-02  2.7852764014682025e-02  5.5594888281802854e-02  3.5439225836087961e-02  4.2447920337291403e-02  5.1088994996305905e-02  4.9248339648141029e-02  4.7993890936900721e-02  3.8242244939384162e-02  2.9802931562754952e-02  6.3494702342275069e-02  7.4488069041072036e-01  5.3576178646309473e-02  2.9179272937711668e-02  3.4343412627380825e-02  2.3571202745091620e-02  3.6248197748989436e-02  5.2621662216962996e-02  4.3721087248444784e-02  4.2515069315921653e-02  3.7835477828204518e-02  4.7396122881896693e-02  4.0692640231973221e-02  2.8957149894396864e-02  4.3848940544722707e-02  4.1976593770009556e-02  7.4565542315038258e-01  6.5312144741009603e-02  6.1165954193007160e-02  3.0389752467266124e-02  2.5164040566221648e-02  3.3084037254905933e-02  3.1941507612462901e-02  2.4068637077522059e-02  5.5419965763176274e-02  3.2660271912419783e-02  7.5180275440925237e-01  5.4088198340207366e-02  3.8546678496821356e-02  4.3764621694747437e-02  4.6336753661483654e-02  4.5705251147982510e-02  4.6380837133423052e-02  6.7236690834555787e-02  4.8693638103776610e-02  5.4579741581846704e-02  3.4757640442626067e-02  3.0539054730051772e-02  4.2983923969919076e-02  4.7337730015927906e-02  3.7313256519950176e-02  2.0263734967289369e-02  7.5472279873772619e-01  3.3542605251077884e-02  2.9669920561110431e-02  3.5390595075588407e-02  3.2638626142172299e-02  4.1773630659621599e-02  4.6523984346104504e-02  3.0521646380157263e-02  5.4088800469212467e-02  2.5703408869587961e-02  3.6112928780949995e-02  4.5638368939555744e-02  2.6347294747360920e-02  3.8596163062451283e-02  4.3650378491445603e-02  7.8839737843345289e-02  3.8803219000941719e-02  2.3588970806868143e-02  3.1868391918217664e-02  7.8986807107213097e-01  7.8601660757382630e-01  7.8826842548386600e-01  3.7062989688783562e-02  3.4746216897587091e-02  7.6845164128677956e-01  4.3718256934018443e-02  4.3040386311896495e-02  3.0505855726731864e-02  4.1209628795575264e-02  5.2614942929393942e-02  4.2323878292832684e-02  5.5576438023747954e-02  3.8766945422855005e-02  2.2050798773152986e-02  1.0548350055885036e-01  3.2661024291375074e-02  4.3158200715793439e-02  1.7869536267579790e-02  2.0605772319963477e-02  2.8942110046120677e-02  4.5656150412903412e-02  3.9429241749547358e-02  3.7883063985588258e-02  3.5972997479384289e-02  3.6237394743773528e-02  2.9814060982525873e-02  3.6137355263966685e-02  3.2579002490485273e-02  4.1395305559110557e-02  3.9989390898988383e-02  3.7470403278601717e-02  4.0088941855376162e-02  7.3432692979080061e-02  2.1904087578855886e-02  2.9415304823691261e-02  4.3662193202784819e-02  3.4750929568848447e-02  7.6012754818519782e-02  3.0370664411462286e-02  3.1975272007824643e-02  4.9910618693966957e-02  2.4306397823929717e-02  4.2072488199139474e-02  5.3142133556104872e-02  7.5755991861460092e-02  2.5218916023488667e-02  4.2711200043898105e-02  4.2059318295390544e-02  2.7461820989150773e-02  7.6942320072866111e-01  4.4429940632333624e-02  3.7092788980921880e-02  3.5620385740918969e-02  5.3766074767880888e-02  8.4252524749583418e-02  4.0233770283400139e-02  4.2057576451058842e-02  4.4225441753938652e-02  3.0592785389132036e-02  3.9811622494227310e-02  4.7028641767738681e-02  7.6016164558481547e-01  2.7757043304715581e-02  5.2017531223895908e-02  5.2334492747797653e-02  8.1287745283611057e-01  7.1378363229705355e-01  7.2644624261388435e-01  2.0126005327695907e-02  3.5696988810128151e-02  7.5976296761410322e-01  2.9073125738631425e-02  3.0389606942696008e-02  4.0287655421444496e-02  3.9656958768734499e-02  2.5906246972444955e-02  7.2248017719359825e-01  2.6189859870949662e-02  5.2144943345126253e-02  9.0468835532447014e-02  2.2731057370925373e-02  4.0794543422293439e-02  4.2778862898581453e-02  2.9560188954808917e-02  3.7296601694256380e-02  2.0284038239586497e-02  3.4477669906340817e-02  7.8220085325660638e-01  3.3951958928203456e-02  7.8043040207185632e-01  8.1995266881835926e-01  3.2621555869282504e-02  7.0671917440869259e-01  2.5120352560782315e-02  3.6004498593172347e-02  2.3959116502641493e-02  3.1203282758255724e-02  2.8982831607828816e-02  3.0306563866213942e-02  3.3197633312459916e-02  1.0273467211007431e-01  2.7257298997170026e-02  3.6736405559483445e-02  3.9238395672990763e-02  3.7243673752264186e-02  9.3914669581216803e-02  3.0936034563409799e-02  2.7259630910836483e-02  3.5367159937501572e-02  5.4222029893057841e-02  3.7629043777550407e-02  3.3044783397888702e-02  3.1389558915746969e-02  5.1201693130672979e-02  4.1737744978829719e-02  4.2062969681736846e-02  3.0777240797418618e-02  3.4526299315382418e-02  7.6572397775321621e-01  7.9445998394355810e-01  7.7663851060819833e-01  7.8158101724130957e-01  6.8664435285029146e-01  8.0680094120265811e-01  7.1326064933682853e-01  1.2331948096195341e-01  6.9747146761930057e-01  3.1180629075896263e-02  -6.3113478024955658e-04  2.9951329179174001e-02  3.3832447407058132e-02  4.5395824600379719e-02  2.7001461919696150e-02  3.6072866805079068e-02  3.9943092079838365e-02  4.4402390574158998e-02  3.0883329660128408e-02  7.0539624620793273e-01  7.6699647524594028e-01  6.8526749071967485e-01  3.2874281292896414e-02  3.0161144854960013e-02  4.1428909702223439e-02  6.0974604919516590e-02  3.9526366095101413e-02  3.4686540084524230e-02  3.5715872703987440e-02  2.7623846754013134e-02  7.7935035105379025e-01  1.1450322981029583e-01  2.8045150371764953e-02  2.7882185158047603e-02  5.4525713404585167e-02  4.3883456683866597e-02  3.0514080028023475e-02  2.9481000511657602e-02  3.9581953730994240e-02  3.1857498496325548e-02  2.4329838983501738e-02  3.4171597887148013e-02  3.1449184810190906e-02  3.0712740614566934e-02  4.1513019566649281e-02  2.1086195786280709e-02  8.0659359668487629e-01  2.0231265674319633e-02  4.7934341617199061e-02  6.7758600159706350e-01  2.8243456025040570e-02  3.1903731074451408e-02  3.8878442056675705e-02  3.8540076589845949e-02  2.9548216443490084e-02  2.4619261568551317e-02  4.2537434019856511e-02  4.4454433322559724e-02  4.4022369225634822e-02  4.3549568958925561e-02  7.8710844177660000e-01  3.2482381985497542e-02  3.5804195032475214e-02  3.7993338661963486e-02  4.1893445705288718e-02  4.1537023473807839e-02  4.3601983365841826e-02  4.3966795538405753e-02  3.2613408145940340e-02  3.2986384375951437e-02  2.9519388177220746e-02  6.7672995952995674e-01  4.6118486343752277e-02  3.3639785406962393e-02  3.9831614529151481e-02  7.7259804704785018e-01  7.8650356781614450e-01  2.6226103993304467e-02  7.6040246722315696e-01  3.4652789786140975e-02  3.7417750120575910e-02  3.1490085882224544e-02  5.4489718539633004e-02  3.0454656166115326e-02  3.0366221898848817e-02  3.9985053078931007e-02  2.9130487279666203e-02  7.6627934390855479e-01  2.3136887392028713e-02  5.3433769372921380e-02  5.4374853182765560e-02  4.9837249131135943e-02  4.9664695731056079e-02  5.1218471120002017e-02  3.1101087266244817e-02  3.3056361624727852e-02  4.4665559042377796e-02  5.1200432208350626e-02  3.8488231991778844e-02  3.2937340071458071e-02  3.1928354135631998e-02  4.6262490743045399e-02  3.2336915986226247e-02  5.4791586596228452e-02  5.0072082144511476e-02  2.9660875315143779e-02  7.8465398458443880e-01  7.7327979035984162e-01  4.3329351414511746e-02  4.7976116102640069e-02  3.2220969707711482e-02  3.2783088835938411e-02  4.2064248279604956e-02  3.3388369888567859e-02  3.4533668873086176e-02  3.3792397250525207e-02  1.1020500174935736e-01  1.2239947493433777e-01  3.4763228185835562e-02  4.3435451617163709e-02  4.1469593360542789e-02  4.1657680213518379e-02  3.9931927565466041e-02  2.0916109392211217e-02  4.2594258914691097e-02  4.1542925884034361e-02  4.0076855668566141e-02  2.0748042956211292e-02  4.3607368300316356e-02  2.5162321213774867e-02  8.2354504365387371e-01  9.7530870690099455e-02  3.4156053340952175e-02  4.4398275723088285e-02  8.6859458754178859e-02  8.2853062393308891e-02  2.5061514683682430e-02  5.1056435011613936e-02  3.7822802877752769e-02  2.1856950198266695e-02  7.6342753829536769e-01  4.7189393157757734e-02  5.3436917072166426e-02  3.5979490693988453e-02  1.3990520297386919e-01  3.8881035710755595e-02  2.5695019296904868e-02  4.8313438562438381e-02  4.3363679154112995e-02  4.1092575201446914e-02  4.1361697484960665e-02  3.2677413452121898e-02  3.1635162144086335e-02  2.8078095941842254e-02  3.6018676190468321e-02  8.2609494843307929e-01  2.8138611941026435e-02  4.4325641742135907e-02  3.4720998449494063e-02  1.9798551708735471e-02  4.6553236946122796e-02  6.5374279483744735e-01  7.6970835116103209e-01  3.1216609657992073e-02  2.7949810319018553e-02  4.0832970727950321e-02  5.9136055992171747e-02  5.3149740361312633e-02  1.3466263836284478e-01  7.8128639695839319e-01  7.7388465078549395e-01  7.7033871817723687e-01  5.3655809125833114e-02  2.6635279014260105e-02  4.1816585465730173e-02  4.1308988412607460e-02  4.2359128803392244e-02  2.1697000522752006e-02  2.0475807631499726e-02  2.8050954061529774e-02  6.7283470794569866e-01  3.4512277362596634e-02  3.7377250976502269e-02  9.5257250494105106e-02  9.4571671809373467e-02  2.3838486172106228e-02  3.0236333899088721e-02  1.1588995487185767e-01  5.1730618630479980e-02  7.6689104993907586e-01  3.2898246315780269e-02  4.6518397382233109e-02  4.6304329560766293e-02  3.0375210589560057e-02  7.9391603321506854e-01  1.1214163128334195e-01  3.5999230763192940e-02  4.4446235200752339e-02  3.3059658309884082e-02  2.3087504969128581e-02  4.1657986958743780e-02  2.6874669147850926e-02  2.6934913050745118e-02  5.0015017368382889e-02  4.3840933119899388e-02  4.5779466288222034e-02  3.9212062234909598e-02  3.5843921687643117e-02  3.7785334342224565e-02  3.9973416675419232e-02  3.1814739756619734e-02  2.7087377855918807e-02  3.1054969290572762e-02  3.2738920636253693e-02  3.1098639484272210e-02  7.1247076941616971e-01  4.1364270539302313e-02  2.6929426847385415e-02  2.1054045303062829e-02  1.1938022492082163e-01  2.0781886138042924e-02  2.8922631573452259e-02  4.0092835086906822e-02  5.2079132019719782e-02  3.6090843930285110e-02  5.3367947012350356e-02  4.2089031250769363e-02  6.3705903803636721e-01  3.6452936934272130e-02  4.9875691363200254e-02  5.0722011189006169e-02  5.3815150870002805e-02  3.9418296731361137e-02  7.6395996719459758e-01  4.1145654047997138e-02  1.2210463796459463e-01  4.7613213407848215e-02  4.5280510672204712e-02  4.5362907595224149e-02  3.7527486890289181e-02  3.8289142788243635e-02  3.6419294261456160e-02  2.0527529122858001e-02  3.1841241128953861e-02  5.1504867964873510e-02  5.1965172360596328e-02  3.5985111551502059e-02  4.7630910230519005e-02  4.8128259228248156e-02  7.9438065650791856e-01  3.2874771226195629e-02  2.5849366392156570e-02  3.3790711875042512e-02  6.4679673411921160e-03  4.0901111811424640e-02  6.6856077331618813e-01  4.3982715360750838e-02  4.7157732480395100e-02  8.8538485601385108e-02  4.2977798102519595e-02  4.3448948219207147e-02  3.3533453354907282e-02  1.3524922157737157e-01  1.8276736879187790e-02  3.0904536639777706e-02  -3.5353581528972985e-02  6.3136994037136551e-01  3.0164799853471924e-02  6.5198488029834267e-01  3.0582506365072190e-02  4.3064717008423785e-02  3.7301724672990887e-02  3.4301854945546946e-02  7.8645785546048119e-01  2.7798582699356221e-02  4.1137062825847615e-02  3.8059170118187956e-02  4.8947288481158951e-02  3.2914667621771983e-02  3.7772570712737256e-02  3.7575964410438006e-02  3.4395153178351949e-02  3.3646003746526133e-02  2.9688096390251648e-02  7.6520430806570350e-01  4.3795902139448659e-02  7.4316942054391755e-01  4.3798521029926894e-02  4.7263047027571855e-03  5.1770977763070436e-02  3.4133200593851942e-02  3.1132643529179056e-02  4.1500186985081081e-02  8.2271273977925785e-01  8.0279339992592413e-01  4.0175070947383443e-02  2.0820726042058493e-02  2.9558150258837099e-02  3.7976460380616341e-02  4.3872282852660080e-02  3.1722772002449072e-02  4.1323719504771893e-02