<?xml version="1.0"?>
<VTKFile type="UnstructuredGrid"  version="0.1"  >
<UnstructuredGrid>
<Piece  NumberOfPoints="939" NumberOfCells="1746">
<Points>
<DataArray  type="Float64"  NumberOfComponents="3"  format="ascii">-0.9881927259683418 -0.007983269360274483 0  -0.9748000864317459 -0.1183253441225154 0  -0.9482371271527089 -0.2269823047192405 0  -0.9092670310646334 -0.3313037862421139 0  -0.8573101493771891 -0.4309681666697697 0  -0.7955330106350905 -0.5220578318235197 0  -0.7271083413460468 -0.6016231267309939 0  -0.6539835458672322 -0.6703648654663071 0  -0.5776455896143191 -0.7289385692294476 0  -0.497928233588841 -0.7786156382204134 0  -0.4152042836982836 -0.8200356150308812 0  -0.3305475896465612 -0.8531623016379484 0  -0.2435536790941715 -0.8786454189776528 0  -0.1535360140725283 -0.8962467654921518 0  -0.06262075899079354 -0.9059263243798893 0  0.02912470036169787 -0.9075414876158747 0  0.1208328741118589 -0.9006119174333019 0  0.2107604585987152 -0.8858570106884753 0  0.2990425444424714 -0.8629963856636808 0  0.3852196828756584 -0.8323571472182076 0  0.4690858951425144 -0.7936240191667432 0  0.5496924671327774 -0.7468995167328849 0  0.626359129796315 -0.6920719265814281 0  0.7003981672472979 -0.6276843793423382 0  0.7711476993564531 -0.5517596362563864 0  0.8358750309601874 -0.4645460544946445 0  0.8917712098918426 -0.3673510318425064 0  0.9355410862408363 -0.2643380401978667 0  0.9665595322310125 -0.1576092379643103 0  0.9847700213346111 -0.04731997030407534 0  0.9895724344160787 0.06429927485704323 0  0.981003422960683 0.1748253062985825 0  0.9596028907704571 0.2830933455816388 0  0.9253502598592356 0.3888864498004909 0  0.8796831291710646 0.488877986395151 0  0.8218641381074022 0.583849935907266 0  0.7540039081530058 0.6710754003004734 0  0.6765466104005219 0.7501862254199251 0  0.590767441262891 0.819971612429734 0  0.4972765344108233 0.8800363050793518 0  0.3980662817691162 0.9291504669368348 0  0.2941399552651012 0.9673121397821016 0  0.1856944373829839 0.9937646579336057 0  0.07559286040397641 1.008058996553978 0  -0.03525181642804686 1.010118680673323 0  -0.1462620677319191 1.000151902175036 0  -0.2557833588268942 0.9780560066560433 0  -0.3610067773602813 0.9441627742998584 0  -0.4619032860967162 0.8990732655206195 0  -0.5583616302507883 0.8422914218199579 0  -0.6465126906208704 0.7761088729408064 0  -0.7274366662769033 0.7000530040796928 0  -0.7986369301408475 0.6159247510953609 0  -0.8604821898167621 0.5229402823366126 0  -0.9103087420700725 0.4251301864831157 0  -0.9488005289554006 0.3221386729811664 0  -0.9750536271692081 0.2145560683413155 0  -0.9882959777831133 0.1043794088910165 0  -2.134593606376355 0.1032507605427678 0  -2.134574295496531 -0.1032508163127774 0  -2.114656014767839 -0.308795584186853 0  -2.07498281960142 -0.511438318595654 0  -2.015935368968128 -0.7093156533497401 0  -1.938066784902831 -0.9005667819047409 0  -1.842109027852153 -1.083420361271338 0  -1.728937221524405 -1.256146022508883 0  -1.599638782054786 -1.417148160128763 0  -1.455380923850433 -1.56490912498428 0  -1.297559472927481 -1.698087770031997 0  -1.127623418961551 -1.815388021785312 0  -0.9471376219095591 -1.915751450932928 0  -0.7578321877155283 -1.998213705386375 0  -0.5614253293549324 -2.06201627298247 0  -0.3597814288490516 -2.106593310239078 0  -0.1548024705092022 -2.131481645493073 0  0.05163198809154511 -2.136472291693544 0  0.2575977026044698 -2.121498269152087 0  0.4611552720285058 -2.0867445618607 0  0.6603979205910854 -2.03249808772151 0  0.8534747425473681 -1.95925538790231 0  1.038584473547357 -1.867736423216397 0  1.213997787574117 -1.758778954082756 0  1.378093267747119 -1.63340500173515 0  1.529302916070088 -1.492782853910534 0  1.666234344131351 -1.338209735024852 0  1.787605761429729 -1.171154935485085 0  1.892294201011382 -0.9931499533939413 0  1.979311249147981 -0.8058839401211207 0  2.047848989314679 -0.6110957813059469 0  2.097255183605286 -0.410589973516724 0  2.127104904271381 -0.2062568816470187 0  2.137083569873094 -2.522912336877016e-06 0  2.127091452864512 0.206255904513418 0  2.097257617404652 0.4105865636698225 0  2.047840930892575 0.6110844864169518 0  1.979315708600863 0.8058889305283202 0  1.892287364018368 0.9931475878055837 0  1.787599956944331 1.171143123694812 0  1.666241100818838 1.338210308787479 0  1.52929734304602 1.492786551290695 0  1.378091627829812 1.633413134744786 0  1.214006517647184 1.758796549330144 0  1.0386009525977 1.867748137434812 0  0.8534764162624379 1.959275968638924 0  0.6603953584597768 2.032485740760067 0  0.4611485756557501 2.08673449249634 0  0.2575976206071202 2.121500645567124 0  0.05163986476441487 2.136458901453479 0  -0.1548064594047858 2.131485410988568 0  -0.3597930611588475 2.106578922525602 0  -0.5614288590901755 2.06201743332592 0  -0.7578250832681155 1.998221807671898 0  -0.9471445159594523 1.915749001472542 0  -1.12762301671943 1.815398951847255 0  -1.29756201754653 1.698087634026899 0  -1.455399075059812 1.564922361584623 0  -1.599639425998469 1.417149734490496 0  -1.728931989892433 1.256136708194711 0  -1.842099095864676 1.083405923185175 0  -1.938077752126463 0.900560045559689 0  -2.015941022176826 0.70931782886839 0  -2.074974006917164 0.5114328298530378 0  -2.114660674797716 0.3087726881698177 0  0.001707889732852097 0.1000154266237028 0  -0.03672780779927571 -1.542116744275662 0  0.5457666683691105 -1.447522223690168 0  -0.6146888814405834 -1.420327210048407 0  1.052868969246308 -1.140155618071536 0  -1.106165119745267 -1.088643870302787 0  1.422310894430661 -0.6145443791539857 0  -1.446418322972702 -0.5596831720218116 0  -0.6412776517336545 1.437309658061112 0  0.8439048880233683 1.328451506341902 0  1.563837811938691 0.03919289761610209 0  0.03047562492360491 1.569921742425229 0  -1.544951750560771 0.2703077517753378 0  -1.144614378647961 1.082669670510978 0  1.290757339848259 0.9031300952013233 0  -0.5095032968310148 0.0358362560819254 0  0.5091034542796736 0.01864592104989024 0  -0.2179610052213728 -0.329151795436844 0  -0.268064131432044 0.4810217967570649 0  0.2969737342773793 0.4631668241103835 0  1.385675811247412 0.4487162798745389 0  -1.489290363581706 0.7509529330085217 0  -1.669789389417339 -0.1597616219837568 0  0.2355018583147699 -0.3391657944622907 0  0.4147142451713719 1.366412943398824 0  0.6488700231161484 1.656993682578741 0  0.2980483422231142 -1.741494999604979 0  -0.3802633297534647 -1.724647287822391 0  1.427925342284017 -1.038040307509109 0  0.9353861074572797 -1.501636185759918 0  -1.003877276267124 -1.454805464528923 0  -1.474205322797281 -0.9396215324991803 0  1.633097886016322 0.734704625837716 0  1.739972534438405 0.3724431948729197 0  -0.3450685823687973 1.714614944944773 0  -1.019793436233937 1.452402819374929 0  1.22225792839404 1.287524035292831 0  1.752097922782032 -0.2719415601084648 0  -1.324256011697122 -0.07031952259041221 0  1.321989543021008 -0.2696367184951384 0  -1.263699805387232 0.4650891128412887 0  0.3155085766564881 1.776542140046911 0  -0.275460192854791 1.343098381475679 0  1.064405075219072 -0.7840310139121009 0  -1.103229636786508 -0.7330602109693005 0  -0.2921592682869018 -1.252927741266871 0  0.2449807591729196 -1.255495789793762 0  0.02193171806318767 0.6836782182574314 0  0.6775298411655698 -1.12293238296083 0  -0.5943248358722307 0.3471113488681539 0  -0.541570636131681 -0.3050742816648049 0  -0.730729027793082 -1.091224491580188 0  -0.8012425122928014 1.0756363834422 0  0.9438343696945763 0.9757577212813704 0  0.6142745723371628 0.3225786802857551 0  -1.733862448563583 0.550381215162781 0  -1.822880371962609 0.1262209546865268 0  -1.094588773601383 0.7479917863450652 0  -1.463422190373348 1.082798999868293 0  -1.768300402022937 -0.5365730739830882 0  1.742810706676726 -0.6205039363336389 0  0.5440922011849315 -0.3124738200088873 0  0.004971051632749574 -0.5495072934893988 0  -0.1032384024170095 -1.840357000695054 0  0.6595219470093145 -1.73371660962259 0  -0.7938861011278159 -1.665939619372719 0  -0.04527988161272561 1.859724748703093 0  1.308327533766982 -1.303452443701855 0  -1.27402963804604 -1.337514495133341 0  1.14421919046711 0.6254743924072395 0  1.139962041257011 -0.500444432377695 0  -1.219263123442593 -0.3565791676561283 0  -0.5180415182266842 1.175933719995123 0  1.86341639163823 0.07433915292457419 0  1.051867664833893 1.527266044528216 0  -0.8172355822512204 1.665072138140215 0  0.6780327092139422 1.093277931335843 0  1.267603826640351 -0.001502080235873009 0  0.1250224708628346 1.28966300712446 0  -1.305327146065131 1.324643623033287 0  1.554443492690713 1.014189089054391 0  -0.02240609873204065 -1.209351309606493 0  0.01090603870292904 0.3754652090131089 0  -1.27346204047591 0.1906731530417248 0  -0.861897857295758 -0.871589017937857 0  0.8566358728082165 -0.9443405438830413 0  1.646285896701462 -0.8726024990970132 0  -0.7358648657556015 -0.09858404213717148 0  0.7295394687998121 -0.1257325893217049 0  0.3398128137246997 0.6971884171725461 0  0.2435253739312964 -0.05857386259678383 0  0.2834025715920968 0.2013566601475354 0  -0.006863733337781085 -0.1601522654205807 0  -0.2486071400370861 -0.03256910120218786 0  -0.23881365589361 0.227028768543739 0  -0.2216344659040297 -0.5963917020529486 0  -0.3134725221878693 0.712085263146968 0  -1.696106417492462 -0.788852493668413 0  0.399248064204401 -0.5253635954499225 0  -1.482482399012986 -1.192539499607054 0  -0.4715114956601103 -1.0945668671239 0  1.195442744764619 0.2823298499294624 0  -1.652256497417622 0.9387132925295756 0  -1.301089638436347 0.8968863035357175 0  0.3124005305354502 -1.496822781999212 0  -1.911600221696532 -0.1958768498224029 0  -0.580609579103784 1.670829923569035 0  -1.499092289510495 0.5104114426734669 0  0.4251124385712392 -1.10561990658113 0  -0.6046776027827339 -1.817282008596028 0  1.531417168264177 -0.4017431106634486 0  0.1271164308841419 -1.911863851325674 0  1.178177744170312 -1.506967751195598 0  -0.3864417630574174 -1.482375950194543 0  1.454522732617495 1.239218897355121 0  -
[...]
<PointData  Scalars="f_1951-1"> 
<DataArray  type="Float64"  Name="f_1951-1"  format="ascii">3.4329681529900141e-01  3.3822386427256979e-01  3.3099623993620342e-01  3.3800978215008642e-01  3.2587920919798463e-01  3.6184060724007100e-01  3.8714731780723344e-01  4.4475293443800407e-01  4.6273597628164859e-01  4.5577555362459438e-01  4.5235900086810266e-01  4.5187150572373491e-01  4.3661723697121108e-01  4.5876296090954705e-01  4.5516727585775563e-01  4.7824568417763696e-01  4.3342815128298967e-01  4.4184857804028177e-01  4.5358893465040562e-01  4.5532253160379793e-01  4.6668379226174100e-01  4.3792754199077710e-01  4.4940667869003870e-01  4.1192836537163396e-01  3.7756059848350892e-01  3.4482705662468038e-01  3.4028713552187972e-01  3.4345838916411009e-01  3.3779208901083069e-01  3.4893387187618480e-01  3.5436620134531505e-01  3.4640439216339203e-01  3.5299866835589461e-01  3.5479284761370589e-01  3.6693856007445930e-01  3.5810682647843378e-01  3.8100743746779520e-01  3.6497770307459165e-01  3.8101698915510857e-01  3.9151388578014351e-01  3.8066796728543739e-01  4.0033797256433257e-01  3.7710659066643071e-01  3.8872947652515566e-01  3.8058459052586802e-01  3.9614009883955364e-01  3.7788594054233837e-01  3.7877219908805088e-01  3.8704468845660411e-01  3.8100886743034079e-01  3.8016334271382179e-01  3.7098210534084358e-01  3.6963805890964513e-01  3.6019114233503896e-01  3.5941940229410752e-01  3.5330325698175574e-01  3.6245315023082375e-01  3.4603330855117176e-01  -3.2106535902165681e-02  -1.0284283781370904e-01  -5.9984872281897549e-02  -6.2438050027757409e-02  -6.1088662054268210e-02  -5.9167130765572638e-02  -2.6884995796844991e-02  -5.3817158556000562e-02  -2.7668871566315707e-02  -9.0491533565787402e-02  -2.1571693292140169e-02  -1.7785187224373951e-02  -8.5668998774257911e-03  -1.3688016841389681e-02  -5.8711366027193505e-02  -9.5909140145535136e-03  -5.1197968299003874e-03  -3.8998814871887238e-03  -5.6334712934715599e-02  -1.0003041418387934e-02  -4.2684504671836000e-03  -6.4266169398871753e-02  -6.7790839849894743e-02  -7.2915773856496433e-02  -2.8300486084466416e-02  -2.0971194168712334e-02  -3.8898349865980335e-02  -4.1459506172654231e-02  -5.2546546821088599e-02  -5.4429071508339429e-02  -5.4215338674451129e-02  -1.0816471349107121e-01  -6.2514043781188466e-02  -5.2363407175243314e-02  -1.0738534796088398e-01  -9.8242861464407749e-02  -9.2965008941777894e-02  -2.9962551638128283e-02  -7.9084393596942595e-02  -7.7840693145164175e-02  -1.1632477953637707e-02  -1.4704352280108805e-02  -4.6868769155286481e-03  -3.4157321609515645e-03  -6.4095623693065738e-03  8.7457178856291517e-03  -4.8312070987437554e-02  -4.8202821642858787e-02  -4.5871705229703519e-02  -4.4766039569410387e-02  1.9623049366779693e-02  -4.3104638528528277e-02  -4.9385028798013285e-02  9.6778572421098736e-03  1.4431506183223133e-03  1.6695154712862193e-02  -1.2304267195708712e-02  -1.1267887477376001e-02  -1.4695623056667259e-02  -8.0397799426378203e-02  -7.2469536086187128e-02  -2.7804824577264058e-02  -2.9902690952598943e-02  -9.1042620257065165e-02  -5.2182111344474376e-02  8.3399352304488772e-01  6.9986825528178365e-02  6.5399867076790380e-02  6.2972220737157109e-02  4.6912318680471889e-02  4.2565156181915857e-02  1.9560303976608535e-02  1.8693758708781552e-02  7.1979578485173099e-02  6.7094437279381372e-02  2.1623356021923962e-02  7.7414933245031195e-02  2.7931300766088126e-02  5.6407512838083075e-02  4.8739638653346587e-02  8.2141260377983472e-01  8.2223745030803541e-01  8.8003589983559072e-01  8.0650584102954626e-01  8.0691767491926758e-01  3.2278396336882828e-02  4.1374472047172976e-02  1.8722105636355797e-02  8.8089462984264422e-01  7.4122947314502530e-02  7.0927883640937717e-02  6.6287002620947735e-02  6.5086546460301917e-02  3.0560426570146959e-02  5.4935391823398932e-02  5.1500642371398335e-02  2.6524841809810264e-02  3.6704053045067020e-02  2.6435160312640940e-02  7.5394693086595563e-02  6.3616400102611326e-02  5.7025530400401973e-02  1.5988085790941100e-02  1.5099468423518904e-02  1.1408188355436465e-02  3.1263051998830484e-02  7.4420914592645548e-02  7.6875523969621717e-02  2.7590469940526628e-02  2.2906661238809072e-02  6.6030623249400622e-02  6.8259226930518849e-02  7.9572069037690407e-01  6.3748667531839429e-02  8.0271768755319617e-01  8.4210305133735019e-01  5.5009729727769109e-02  6.1441962239407989e-02  5.2099483496809415e-02  7.9436231261557466e-01  3.0006675219625842e-02  2.0553499802333387e-02  5.1248455501733917e-02  4.7698947930452630e-02  1.4938956154194714e-02  1.5189310803278793e-02  8.4341811302856873e-01  9.0547224350533340e-01  6.4492155185590885e-02  6.0228821325501225e-02  5.6149584035161265e-02  7.3953146783431900e-02  3.8464156768643759e-02  3.9865600991088511e-02  4.8377049114777249e-02  1.8373170370739718e-02  1.7088175571827756e-02  7.4851181997488733e-02  1.7905421817924875e-02  6.1312801246608227e-02  6.6982305469831777e-02  7.0756688170910964e-02  2.0482217058307307e-02  8.5926215244485141e-02  5.3210040784154367e-02  4.3326108707450059e-02  7.6211800293953594e-02  8.1493275264160747e-01  2.8888605691739542e-02  5.6299995948746719e-02  5.4332052789008718e-02  1.9424765695660390e-02  7.8535618991712863e-01  7.8101713244407689e-01  7.7623089506546472e-01  8.4445698682126213e-01  8.2164288335773239e-01  8.6062716406341455e-01  8.4162262988908032e-01  8.2132185940892444e-01  9.1323735753013779e-01  7.7492870286165405e-01  1.6336346802146656e-02  8.9910376074627407e-01  2.8186995495478786e-02  7.0405439277447593e-02  3.5848191138127504e-02  3.9082143552379718e-02  4.8924241938194016e-02  6.8671265515389060e-02  1.2469893042296391e-02  7.2505348720039400e-02  3.4747659386480417e-02  7.4487980109452095e-02  5.7973365099109830e-02  1.7131360087074176e-02  6.3180900442417420e-02  4.4705652509445637e-02  6.7029469110057763e-02  4.7680889324114600e-02  1.7640703160593550e-02  2.2336927335687859e-02  7.8888002599943929e-01  2.6953834788930642e-02  4.0884053190707023e-02  7.6746998174903980e-01  8.9297561163131023e-01  6.4300464665550727e-02  7.9378005852738476e-01  2.7253658325602063e-02  7.7168388631240070e-01  2.1688663492423255e-02  5.6906420519341722e-02  8.5666535361385507e-02  9.1353141175962049e-01  5.7512763485261950e-02  6.5054400133591900e-02  2.5443506399357677e-02  5.7521445904414610e-02  6.7031770245571470e-02  7.6789035602999697e-02  7.1282479708229013e-02  3.5646518311129999e-02  1.4788712763527796e-02  7.5169946043193978e-02  6.6457830154138850e-02  1.2068807196580119e-02  9.8661021503446994e-02  6.0968431247244222e-02  6.9291147843560372e-02  9.7232115024838226e-03  5.9547331532352629e-02  4.8683902195269683e-02  1.7905698418650542e-02  7.0471508919100229e-02  6.6253989280661105e-02  3.1943272902737539e-02  2.3293430441642834e-02  6.7984080521058782e-02  1.1016735481159544e-02  1.3736957125025231e-02  1.8819925788728393e-02  4.2072918039785169e-02  7.7182063402411197e-02  7.5689153740999424e-02  2.8775282047578968e-02  6.2454543457626202e-02  3.0624498131769234e-02  1.6945263666846216e-02  6.9228489463604145e-02  8.5394354653757831e-01  1.2244577910419249e-01  5.4493903435211134e-02  8.1002910115523052e-01  6.1083451852164565e-02  5.8775642545213579e-02  6.8088136897468982e-02  5.2537695385732303e-02  6.5796272918661622e-02  4.2136226053608145e-02  8.5338651622401962e-01  4.7453609835564507e-02  4.9141369381849598e-02  4.7470035188762257e-02  2.2441548939300029e-02  4.3310956202023528e-02  8.8531008558451196e-01  1.9896859335506667e-02  6.9269416759207392e-02  3.5584146481246436e-02  5.5822803915500131e-02  6.6940739991047257e-02  6.0052511813965662e-02  5.8301780065507222e-02  6.1709937284059761e-02  3.7782495665984621e-02  5.5376570778565309e-02  3.3154491856691636e-02  7.5145700600807941e-01  7.8103153630141836e-02  1.4165095903188224e-01  5.9786701908256579e-02  1.0978755064511241e-01  1.4658641634744247e-02  6.4510800244790181e-02  7.9790589783780702e-02  1.4994508438018033e-02  4.9702007847609503e-02  7.5017453937416123e-01  6.7832095061838460e-02  2.7080668903063553e-02  5.1968499652001662e-02  6.2652326693789853e-02  6.8678678759281200e-02  8.0842253709629219e-01  7.2011312472579325e-01  1.1677800274793673e-02  7.5926254974149468e-02  4.2995959821076228e-02  2.9095436311994648e-02  2.4070312895506509e-02  2.9367943873037098e-02  7.5347586447764470e-01  6.1958102677432882e-02  1.4682862705354893e-01  8.2730035985165462e-01  7.5947047957262015e-01  6.1737880612207204e-02  6.6198721445894518e-02  7.2287911502808791e-02  1.5897996418701259e-02  7.4035952668875071e-01  7.3217357874259503e-01  7.1063274769086915e-02  5.7086462508869340e-02  5.8653065266148746e-02  9.1722903341560569e-01  1.1946656802349134e-01  1.9574511556804144e-02  4.5233687630508647e-02  3.6225399715133950e-02  2.1856528007292451e-02  6.6167946674971334e-02  3.1702118452935357e-02  2.4293360429136462e-02  6.4863036482409736e-02  1.4031473096304173e-01  7.9953285348321568e-01  8.0240481375014938e-01  6.0039078186949141e-03  6.1612954598751817e-02  2.5623178403822604e-02  2.2420125570053732e-02  6.8829447479263589e-02  3.0027563957397762e-02  2.3257852417696442e-02  6.4715686340268960e-02  6.9685469068574382e-02  1.4241397010905174e-01  3.6208982341696914e-02  1.8555677115681977e-02  7.0810228124449273e-02  3.7712104481208583e-02  2.5065509026235899e-02  1.2526553573532120e-01  7.6528102225117189e-01  8.0576970418498683e-01  7.4247412941306226e-02  5.5986876125393326e-02  8.1109146732176485e-01  1.7623124123234683e-02  2.9443100099656054e-02  9.5415445766069574e-03  9.1150970625167349e-01  8.2451139549329677e-01  6.9115234520497684e-02  3.6422998337319705e-02  1.6215488524852304e-02  1.8309331695918921e-02  5.9424983730995043e-02  5.8132846552413388e-02  2.0498306338644631e-02  5.2532915784235329e-02  7.6218163922865637e-02  8.5985461786800854e-01  3.9850066700023508e-02  7.1512829438107373e-01  1.5493267133968109e-02  8.0642470695683932e-01  8.5138118025657170e-02  1.4175464654905434e-01  7.8851446959343846e-02  6.3473997800219437e-02  1.1087487920063514e-01  9.4162882538640861e-03  5.2464867164207209e-02  8.3399325538713276e-01  7.0035865295915234e-03  1.4080701756315964e-02  4.2504362585510387e-02  4.9544933566696564e-02  1.8197603096608873e-02  3.0659634475590100e-02  2.4201252567771798e-02  5.2340081952046542e-02  4.0854984358504799e-02  4.5515110058030932e-02  8.9813742126955365e-01  2.7862134213844494e-02  8.5151520733159702e-01  1.7513920123188313e-02  8.2687558802299044e-01  1.2677870167939792e-01  8.2318243405761282e-01  8.3305476371638409e-01  8.4604837781145537e-01  8.1487328291896977e-01  6.9409076049087681e-01  8.1742880809746632e-01  8.2989752850590692e-01  7.6444725824196383e-02  1.1506517288023964e-01  9.0226846395221072e-01  8.5892840314781116e-01  7.3230942017391082e-02  8.7373102575465611e-01  8.7457638389736481e-01  6.6349868690534747e-02  7.4759613176947608e-03  4.5487694136304276e-02  7.2008424675939348e-02  8.0170745073269301e-01  6.4819665835576254e-03  3.3979256702530970e-02  1.1852064208218936e-01  5.5241576207293648e-02  8.0864894702947032e-01  8.1420820707935526e-01  3.0454870821032199e-02  5.9373049428211290e-02  6.4917934644660072e-02  7.7263042137928561e-02  8.4502217108714783e-01  6.1546580370297657e-02  8.3539741556446900e-01  6.7678911646159134e-02  4.2981959791441128e-02  6.8947337099684078e-02  7.0361010528159657e-02  8.0596074066395396e-01  8.2317567069307440e-01  7.0278093021812885e-02  1.5207301846090196e-01  7.2930191846978562e-02  3.5636370723753336e-02  1.4186934949151400e-01  8.8367699713402054e-02  7.5368175342506324e-02  1.4709139276703776e-02  1.3327343120772123e-01  6.9320412384453278e-01  7.1154942735980622e-02  6.5007192086964996e-02  4.1365145838937654e-02  8.6068976365163707e-01  6.8010378096998531e-02  2.4015343615001801e-02  8.7154139488728161e-02  7.0768582391997903e-01  6.9007053946529784e-01  4.8055386737274650e-02  7.9191156068918533e-01  5.0565363958712674e-02  5.5909119381203139e-02  7.0269730818083159e-02  5.0033710177452548e-02  1.4214840041568641e-01  5.5913371931021333e-02  1.1082262178240536e-01  3.6456918344343114e-02  6.3809452637137193e-02  7.0574673966438170e-02  1.2305886084939290e-02  6.3912009615705020e-02  -2.0126667805425606e-02  6.8417161213129837e-02  4.3686657217758738e-02  7.4974291347077532e-02  1.2389247655667155e-02  8.3238927583472089e-01  8.4563669398707420e-01  1.0052755778675718e-02  4.5629114186713081e-02  2.7409257487612405e-02  2.1177687577938250e-02  2.5028246011450938e-02  1.5972469031638528e-02  5.9837865742738333e-02  1.5094012512809929e-01  5.9901375895439174e-02  5.4630677815930007e-02  3.1634523087855138e-02  8.3891092725771776e-01  3.6542452532299909e-02  7.7200105776431507e-02  6.9813359549874984e-02  5.4333657347459492e-02  5.1409386392368944e-02  4.6836050605011323e-02  5.6672660152725901e-02  3.0473980804333094e-02  1.7991601625133930e-02  5.4973179836560596e-02  1.4861279246745143e-01  1.3895199708298554e-02  4.5103110018410157e-02  7.6221289873036266e-02  1.2103507692511967e-02  6.7561922541624672e-02  5.2889186348695931e-02  3.9340946320812427e-02  8.8727381890269108e-01  1.8148663547189619e-02  9.6415223409390960e-02  1.5238079498424557e-02  8.2003905121325571e-01  2.7552033865246142e-02  7.3420358221282636e-02  3.4796834967036214e-02  4.0153795244530430e-02  7.0353932819850903e-02  8.6830417591305664e-01  4.0441813839434071e-02  1.9081446719946989e-02  6.0089041784150157e-02  6.3990005331099609e-01  7.3150044586609092e-02  3.8044718118619043e-02  2.1782596581302927e-02  6.3062800359486179e-02  8.1806732685827621e-01  8.0918766730932634e-01  2.0464474237841236e-02  7.3606030109590570e-01  6.8705304291509353e-02  5.3651639572694185e-02  6.2671189968296459e-01  8.1222151437488954e-01  -1.4650033419834922e-02  8.7051511713668883e-01  6.1529424099134522e-01  2.2632828245255959e-02  4.3574744448364726e-02  2.9519007714217213e-02  4.4384271397291564e-02  6.5399279304914215e-01  7.9891111318772323e-01  6.5676149323513552e-02  8.0394976162586196e-01  3.4799335369714648e-02  6.8118094316338390e-02  2.0323475916332611e-02  3.8446043352676866e-02  5.0443146440109742e-02  2.2776047003696787e-02  7.7945362204113766e-01  9.0096249686942520e-01  1.3256508862708176e-02  6.2359816143091584e-01  6.7707271519805878e-02  3.9646754301185611e-02  3.4000806894256400e-02  5.5427107641621044e-02  8.1043702136842033e-02  3.9048008889190806e-02  6.0502849375894688e-02  2.5026324884109358e-02  4.7536491279086372e-02  6.9474746791258063e-02  6.6869976000712622e-02  1.5901227801650632e-02  8.1222428041051042e-01  9.0139335490594685e-01  1.3304698318127869e-01  6.5234028348553186e-02  6.8457538598562995e-01  2.6842760441920636e-02  5.8283971584200359e-02  6.4770336060438818e-02  6.4913127798923512e-02  6.1839565088842217e-02  5.2913768093048041e-02  5.4852780759527438e-02  6.8355836079888030e-02  2.5941984372408647e-02  2.2767174455493467e-02  8.1762352208858302e-02  6.9960302636674868e-02  2.3765928146738179e-02  5.7940102562732194e-02  6.4706367721105751e-01  1.8089184253602598e-02  8.5884224837797285e-01  6.3510206411636061e-01  3.0351141975673325e-02  2.8886315807571807e-02  1.4661322751402316e-02  1.7446678937283785e-02  1.7067033413495917e-02  6.2033238934221624e-01  7.3314417358952541e-02  2.0077361878876973e-02  6.5081526210493207e-02  1.6119649231610184e-01  7.9385884360987968e-01  3.5851955434036416e-02  1.1174352422401755e-01  -2.6218867866785553e-02  3.1495684108015398e-02  1.3818571369778054e-01  7.8198964981219055e-01  5.2962972968614817e-02  4.1801384157980508e-02  4.7283525864206061e-02  7.8119466640112933e-01  4.1354658547095489e-02  6.1449578949977268e-02  5.0840723919089517e-02  5.8241431947127824e-02  3.7413132466570465e-02  7.7751134171125419e-02  3.9694099065922951e-02  4.2707286814991023e-02  6.4694586417989974e-02  6.3517721227628027e-02  5.7080186123399129e-02  2.7034122967882331e-02  4.4878029099454972e-02  1.2844357581027027e-01  6.7050649856094685e-02  6.7230199281652359e-02  6.7632183950964750e-02  7.5799492442945604e-01  6.1959687102470025e-02  9.8970662674859478e-03  4.4885660952298435e-02  9.5777136034045727e-03  7.9147543313576751e-01  4.0905752807370098e-02  8.3750241216422783e-01  4.8426085923498141e-03  8.5804964170072898e-03  1.6281048678509116e-02  8.5227176688337833e-02  3.2774669879055335e-02  2.9813697653209782e-02  6.7754178857996755e-02  8.1689130856757441e-02  1.3525628654217600e-01  6.3111679484143535e-02  6.8515004339348762e-02  4.7548469647934376e-02  7.7380474384046910e-02  7.3730044227532793e-02  6.9729957064829678e-02  7.3624872357433258e-02  1.1114841388437362e-01  1.9378143083290132e-02  2.3329391412248240e-02  7.4101451097352503e-03  9.7603403344611289e-02  2.0114551815003077e-02  1.3681163169199768e-02  1.9042868079146014e-02  3.3813640164287728e-02  1.2999866129058183e-02  6.2703886315315899e-02  2.2147948623153772e-02  6.9641394597992609e-02  2.2510440959580349e-02  5.5676297516380757e-02  6.1773957558617043e-01  9.2139002253293822e-01  1.6538679070133261e-02  1.7810101517870165e-02  2.3971445256812215e-02  2.9819228599728284e-02  1.7398938260869988e-02  6.9418693590872257e-02  6.2551743736974766e-02  7.0384417020739887e-02  8.2030329356717580e-01  1.0282945524813160e-01  7.9843154100026470e-01  1.1485739769392680e-01  6.1775514708189254e-02  3.6412500636469475e-02  5.2683074755191364e-02  5.9900669289578684e-02  4.4750956652596909e-02  7.9289222132401982e-01  1.7545186439463853e-01  6.2262238219323189e-02  8.7480334353886091e-01  6.4969318534954870e-02  5.8702088524364482e-02  6.0303103353182862e-02  6.4607041251325381e-02  6.6283955209344741e-02  7.0142508260591693e-02  3.0944691448873615e-02  5.9119749908453789e-01  1.8648350186003689e-02  2.0653431738093836e-02  7.3791087841638639e-02  2.2054461050346183e-02  6.4925679386134902e-02  7.4450006761156887e-02  7.5352472346989482e-02  4.5709490364932145e-02  4.1211854765402074e-02  6.1484155182494546e-02  6.3146909259005379e-01  3.6469826019141144e-02  5.8751723070631534e-02  6.0435279377806482e-02  1.2892134979667025e-01  7.9615845104810645e-01  8.1142591851140689e-01  7.9394817700584153e-01  8.4016406594124571e-03  3.2844506636902415e-02  4.1374698603687331e-02  4.9032310000290444e-02  2.4366407463368978e-02  6.9484660347755592e-02  7.3346900224038197e-02  7.1298862316911057e-02  1.1150752516142661e-02  5.8961481779108815e-01  6.7642735390585379e-02  6.0202391769660990e-01  7.9496371972206681e-01  9.1614693229466415e-01  4.9583285250375697e-02  7.0065221937301025e-02  7.8449670285996487e-01  1.7596865465233125e-01  6.5333757358440797e-02  8.1042537528153646e-01  3.6856725405966712e-02  2.6220254493350477e-02  3.5687982768895399e-02  7.9909033683263497e-01  7.4959583029923421e-02  4.6093869538682192e-02  1.8386780893317281e-01  5.8612591102314725e-02  6.0026244292989493e-02  6.4209376309617788e-02  1.8263873712958564e-02  1.7708351914914025e-01  1.7842129769453988e-01  1.5776127839306067e-02  1.9016001531099898e-02  1.5882459089509529e-01  7.0398052875801656e-02  7.1553077108557905e-02  5.3043639733525064e-02  2.9252479933323680e-02  2.2742665940211584e-02  8.3544340949464987e-02  1.0207806258277897e-02  5.6040560356064806e-02  5.3581109451681305e-02  1.2120290986493552e-01  4.8395504125520059e-02  5.5902737255190224e-02  5.1853020486635940e-02  6.1559524172180073e-02  7.9707578475444567e-03  -1.3585893354923757e-03  1.5743163359259418e-02  1.3597897384501010e-02  5.8894325914155687e-01  7.2882733105353925e-02  1.2877413404239535e-02  1.4673263491255079e-01  6.0872844491172105e-02  3.2674064502467785e-02  9.0333401783059153e-01  1.2458984680370876e-01  1.5584963316265138e-02  1.7165060023623883e-02  1.7666086221994937e-02  1.5599429547695348e-01  2.2319782840389931e-02  1.3491524334908878e-01  6.2019347122173885e-02  4.8956240224659359e-02  7.4772854611625209e-02  8.0496219958857729e-01  8.1960993358837442e-01  1.2277899614388355e-02  7.9344461124838850e-01  4.4251851421029206e-02  8.3000314507251566e-02  3.4605219489777503e-02  2.6769101133946118e