<?xml version="1.0"?>
<VTKFile type="UnstructuredGrid"  version="0.1"  >
<UnstructuredGrid>
<Piece  NumberOfPoints="1417" NumberOfCells="2668">
<Points>
<DataArray  type="Float64"  NumberOfComponents="3"  format="ascii">-0.9968744161466425 0.286831715748628 0  -0.9948916049313349 0.1781711988624229 0  -0.9807275437883559 0.07017497366233368 0  -0.9546037701492576 -0.0358212422049942 0  -0.9168709133159743 -0.1382986827294043 0  -0.8679504969417987 -0.2360207215051021 0  -0.8085696039731146 -0.3277735688056137 0  -0.7397485036078121 -0.4120918327935923 0  -0.6625636871206758 -0.4880361033166984 0  -0.5791515449417308 -0.5538984057911032 0  -0.4910580051116827 -0.6098335071802581 0  -0.3982264924905144 -0.655896222737049 0  -0.3017972145553085 -0.6919502451946768 0  -0.2027777343760581 -0.7179304734410351 0  -0.1025538729857749 -0.7335101874166406 0  -0.00413493923229265 -0.738730873825556 0  0.09456556741553704 -0.7336172195357836 0  0.1943810647811039 -0.7181090886521823 0  0.2929815163780781 -0.6922431553710344 0  0.3890326087467894 -0.6562187695272009 0  0.4815282214062123 -0.6104193535685611 0  0.5694568873917163 -0.5550124682611908 0  0.6524620963980261 -0.4896736483130172 0  0.7291877397363127 -0.4148980663194063 0  0.7984547307427649 -0.331131837918532 0  0.8584047703719184 -0.2397448792300206 0  0.9079631630522652 -0.142319281383644 0  0.9461157419663494 -0.04038978034256643 0  0.9729207662934698 0.06546703047079533 0  0.9878169726048156 0.17379003717174 0  0.9905074044198398 0.2822753258196817 0  0.9810699522637472 0.3905329246571741 0  0.9596186416337483 0.497161104734396 0  0.9263990245431114 0.6007311944914284 0  0.8821371115345181 0.6994443262384755 0  0.8271338204530904 0.7927279971908332 0  0.7621359127758862 0.8794463945263095 0  0.6877787756128882 0.9588312884803225 0  0.6054649719551829 1.029347874295266 0  0.5159267416419401 1.090466669431208 0  0.4201832496688901 1.14152743200912 0  0.3195269099140775 1.181813182717397 0  0.2151936309103586 1.210982311186127 0  0.1079934440045657 1.228754443810236 0  -0.0007910003564762677 1.234742946800129 0  -0.109063178638237 1.229069786161781 0  -0.2162051747046068 1.211657875671295 0  -0.3210022581093299 1.182756503165816 0  -0.4219117699590869 1.14279142214076 0  -0.5177457581917364 1.092137821347978 0  -0.6074175175803188 1.031523807118343 0  -0.690192124559261 0.9613772420975849 0  -0.7646721692491647 0.8827006159905262 0  -0.8302212526419056 0.7961935534270949 0  -0.8858126548860942 0.7030915194261245 0  -0.9307462224217565 0.6042836111808033 0  -0.9644643209826533 0.5013591799910381 0  -0.9866586852551352 0.394963310906271 0  2.626176462362304 1.466901276417929e-07 0  2.618474317151855 0.2010319688875491 0  2.595398557760405 0.4008832768129276 0  2.557095547335732 0.598383538758219 0  2.503787792233767 0.792370514825115 0  2.435785060722567 0.981708901450276 0  2.353488884365158 1.165286495537377 0  2.257381567712949 1.342024661011864 0  2.148027023314107 1.510887513085383 0  2.026067172267211 1.670885235623319 0  1.89222045685036 1.821078076046009 0  1.747263108663539 1.960579391763817 0  1.592058991333098 2.088583589090208 0  1.427506093278609 2.204325084314263 0  1.254579696143532 2.307131068007065 0  1.074287973973628 2.396399332960625 0  0.887694389953656 2.471603510474984 0  0.6958881673795156 2.532300156477571 0  0.5000010756139965 2.578139517578585 0  0.3011784561146277 2.608853636618427 0  0.1005903813493867 2.624250744083363 0  -0.1005886727702853 2.624253598012648 0  -0.3011790721159554 2.608850385782175 0  -0.4999998448960825 2.578144133912084 0  -0.695888285780221 2.532300710164684 0  -0.8876924084363091 2.471600564298746 0  -1.074289547261972 2.396398695942677 0  -1.254578282599528 2.3071318077861 0  -1.427507002726217 2.204326171410012 0  -1.592056749289426 2.088582919817408 0  -1.747265338491665 1.960583055428682 0  -1.892218511758687 1.821079473145374 0  -2.026069577170074 1.670888141903282 0  -2.148030451532602 1.510889812233761 0  -2.257382109710713 1.342025179047638 0  -2.353492527398587 1.165286684867212 0  -2.435785334556107 0.9817091357552855 0  -2.503790267274677 0.792372978438776 0  -2.557099241302568 0.5983838803450902 0  -2.595398742930374 0.4008832656285992 0  -2.618473922375853 0.2010331784053856 0  -2.626175571823218 9.315556646063561e-08 0  -2.618469974542416 -0.2010326185803989 0  -2.595398491975809 -0.4008848152812534 0  -2.557098831771414 -0.5983832600089133 0  -2.503789611916538 -0.7923734526514677 0  -2.435787629076889 -0.9817109197710483 0  -2.353491799552919 -1.165287290320207 0  -2.257384230057465 -1.3420275050176 0  -2.148028981978052 -1.510890604614004 0  -2.026069291837987 -1.670887072769009 0  -1.892219047953389 -1.821078767784507 0  -1.747266220957913 -1.960582176014751 0  -1.592056941458819 -2.088582381868896 0  -1.427504724631946 -2.204322316018003 0  -1.254577380374704 -2.307131991838139 0  -1.074287384231014 -2.396398831552238 0  -0.8876940966823149 -2.47160271437427 0  -0.6958900016089462 -2.532303311915894 0  -0.500000544322759 -2.578140113369177 0  -0.3011787257874038 -2.608853380845315 0  -0.100589562243543 -2.624250268704336 0  0.1005890337838856 -2.624253248099345 0  0.3011798987212566 -2.60885315468177 0  0.5000006295182788 -2.578139992435871 0  0.6958899138814877 -2.532303343745609 0  0.8876938718175182 -2.471603999481792 0  1.074288729010791 -2.396398503274252 0  1.254577574714497 -2.307132084429174 0  1.427504634475049 -2.204322573588689 0  1.592056993444428 -2.088582777415377 0  1.747265293884911 -1.960582870462207 0  1.892219196210897 -1.821078484413786 0  2.026068792647074 -1.67088832451586 0  2.148030278414014 -1.510889188786086 0  2.257384020047659 -1.342027171960866 0  2.353491962854815 -1.165287451363326 0  2.435784905787249 -0.9817088110462732 0  2.503790127009808 -0.7923711729591967 0  2.557098881864921 -0.5983842063382978 0  2.595401750613601 -0.4008842290829776 0  2.618473554777522 -0.2010336135790338 0  -0.003887459759557008 0.2505442718037392 0  -0.128233727756412 -1.678640286656258 0  0.8653691570053731 -1.461730292462518 0  -1.056935498313552 -1.341338767663478 0  1.530317705303723 -0.8354924002576689 0  -1.657854678145563 -0.5990918824900247 0  1.796286048987829 -0.05444526585798436 0  -1.807447030308152 0.2042060497389332 0  1.693691658582019 0.7544387175619317 0  -1.593965126659089 0.9749799381072641 0  1.254204709889387 1.421347843600944 0  -1.112147077693505 1.549095672671311 0  0.5830409975652171 1.836325442343523 0  -0.454193694455649 1.87305968562046 0  0.4507000235035545 -1.942176017154269 0  -0.7242391185575023 -1.867840963369627 0  -1.631653785807937 -1.245087400632448 0  1.433145567898316 -1.490445373728307 0  0.06104312465553548 1.7584806074785 0  0.3320066014102689 -1.415935582055281 0  2.006917722180161 -0.559233057640897 0  -0.4880817696798611 -1.238893122248829 0  0.4858804606059948 0.3488793409673701 0  -0.5027525712075471 0.2444824333956266 0  0.9624478126164242 -0.9341800133150934 0  0.3107579986837176 -0.1273307382227342 0  -2.088913956652584 -0.2435385880327892 0  -0.2553893368497357 0.6752361407225821 0  -0.2305680517502858 -0.1845334081204491 0  -1.138223812028877 -0.7976614567221849 0  2.071757117931077 0.3938703278754985 0  -9.234612817810267e-05 -2.149920170730848 0  0.9308359261877205 -1.938720977792708 0  -1.19135462029303 -1.795700455507179 0  1.374574805125308 -0.3510228142254372 0  -2.015979858360234 0.7207102480839026 0  1.799155920933692 -1.211238251528335 0  -1.444374468416616 -0.1477090646043023 0  1.717371013434504 1.305336861320647 0  -1.962923192740631 -0.9362550774769458 0  -1.622176387898217 1.441890798353212 0  1.063682463420411 1.865435124086191 0  0.1684379243662036 2.188559739248888 0  1.478238536044443 0.3129608534590435 0  -0.06127882784926963 -1.246668309455538 0  -0.9075516210784283 1.965710788722636 0  -1.449064965724725 0.5171502855041742 0  2.198453686830283 -0.1850632581802273 0  0.2105223085305253 0.7274076264579887 0  1.27353552200635 0.9533922331398932 0  -2.213918765391069 0.1454369936562855 0  0.802874410277122 1.439593671453786 0  0.551610342075429 -1.05708421722758 0  -1.145770828913798 1.106210664216065 0  -0.8164110796481275 -1.02543805328206 0  -0.6686747226814318 1.496612076906229 0  -0.3576887831105805 -1.997025465700304 0  2.089579393925648 0.7898207295211397 0  -1.958525728590804 1.100996279590819 0  -0.3457436023731509 2.235409448673682 0  1.420508723656342 1.757686141499585 0  -1.309618411982982 1.858633108506265 0  -1.562105350600942 -1.623612587819024 0  1.29262599594705 -1.133735433912414 0  0.3638677367834198 1.543446403557947 0  -1.190881410827949 -0.4286870465062823 0  1.076477080751137 -0.5811868315879392 0  -2.014212162883144 -0.5878345006045055 0  0.5360458053789807 2.202472910727615 0  -0.2505596740184495 1.571922282566736 0  2.055552403049721 -0.9334456236299857 0  0.6923299222866386 -2.189217551150344 0  0.3254563964126736 -2.264977977592579 0  1.299456667959817 -1.848225629340523 0  0.9853721554050707 1.144304336089619 0  1.31890883546292 -0.005131051416008553 0  1.29095031423099 0.6044040847274021 0  -0.4778151903876561 -1.599295557028858 0  -1.470585223840799 0.184172279484717 0  -0.6348913162570172 -2.197511225544027 0  -1.30155305581989 0.8132618873049591 0  -1.31008645637108 -1.102625210352763 0  1.716063253999219 -0.3821240591224891 0  0.2129756291586651 -1.0602357799558 0  -1.636468681157986 -0.9213210561613495 0  0.6132263500554688 0.02905529757826833 0  -0.559010398877402 -0.09432943665735381 0  0.05911798053351874 -0.3747554097598174 0  -1.778337311701422 -0.1242813818907677 0  0.6871076556485658 -1.726724574839742 0  0.1397062664656257 -1.857302328980795 0  2.000932563521227 1.118570683831042 0  -0.7486066371786808 -1.431314000586765 0  -0.5776069882205186 0.5719313820452905 0  -0.9958706012459545 -2.069655131922386 0  -1.951571397730096 -1.254278907159166 0  -0.1597895653641988 1.982137582202019 0  0.8113177019145212 2.051915416574578 0  -0.6388810469778188 2.126180711753711 0  1.748
[...]
<PointData  Scalars="f_4405-1"> 
<DataArray  type="Float64"  Name="f_4405-1"  format="ascii">3.3905564789529835e-01  3.4031892194502145e-01  3.4804378053642265e-01  3.3193352780680419e-01  3.2783892776582774e-01  3.2516997031426215e-01  3.4233396028469465e-01  3.0772063310168396e-01  3.7728201666988342e-01  4.1104040760576827e-01  4.2267597426725306e-01  4.3595899330985077e-01  4.3426041633728363e-01  4.0272957980271107e-01  3.7853210298509155e-01  2.6769704478029122e-01  3.3541242450462139e-01  4.2553777736023485e-01  4.3637096597735303e-01  4.2683573273155101e-01  4.4096240021495270e-01  4.2659454558922022e-01  3.8171573574464107e-01  3.4809928490870878e-01  3.4260036708789443e-01  3.2127267204550647e-01  3.3766050375286449e-01  3.2584031625714122e-01  3.3052192063203373e-01  3.3788566854887864e-01  3.3867234991218037e-01  3.4478103741313615e-01  3.3430147601857635e-01  3.3838112649106888e-01  3.4486348991740373e-01  3.5791676742147299e-01  3.5165216468124177e-01  3.5284301729018203e-01  3.6252339408980988e-01  3.5820314160213862e-01  3.5582951085091630e-01  3.5852540110782671e-01  3.6291444026178793e-01  3.6407561454194692e-01  3.5209429186334057e-01  3.5494827133593743e-01  3.5466946971023144e-01  3.6804309805327434e-01  3.5894947393554194e-01  3.5630516483979574e-01  3.5299263127588681e-01  3.5868229243347172e-01  3.5260343027448104e-01  3.5326751701224435e-01  3.5658058828711775e-01  3.4182334924983715e-01  3.5094891928152860e-01  3.3098390803935690e-01  -8.7932137953022058e-02  -2.2231244339154927e-02  -9.1889479680048070e-02  -9.2056025858462454e-02  -8.0812888434976596e-02  -9.0702260502666956e-02  -8.6294336338010022e-02  -8.7660788853383534e-02  -8.8942928374162691e-02  -7.7047687136998055e-02  -1.4290457721845003e-02  -9.9637442172518784e-02  -3.4616109494737283e-03  -2.6338722419876299e-02  -2.1431437963542060e-02  -1.7602707348512894e-02  -1.7272915074343906e-02  -7.5310462828975397e-02  -7.4876631781566255e-02  -8.0748655734625748e-03  -5.9976702994305145e-02  -1.1716634503808703e-02  -6.3964670117651043e-02  -5.9142457247583127e-03  -6.7518556858564796e-02  -6.8343743356594516e-02  -1.7792773897031627e-02  -2.1671373225953194e-02  -2.5623664904947294e-03  -2.4274676021150104e-02  -2.2638244804487843e-02  -3.3975389467259691e-02  -1.9330909638919015e-02  -1.8430758032464627e-02  -7.8520444370936721e-02  -3.0197265705910241e-02  -8.5268586108212030e-02  -2.8857738833947738e-02  -3.2609353045230716e-02  -8.8995431904385969e-02  -3.1145815066964757e-02  -9.9625180119708043e-02  -9.7209440241000145e-02  -9.1006389611422309e-02  -4.0848969833297430e-02  -3.7733621651815423e-02  -4.0262679448686674e-02  -4.0980259296880768e-02  -2.8562592292143942e-02  -3.8580772070799116e-02  -3.4447241806019692e-02  -3.2414272626769637e-02  -2.7427712630693175e-02  -2.2059979242720677e-02  -7.5172085515426978e-02  -1.9248485658361597e-02  -2.9474740574368597e-02  -3.2392960980935796e-02  -1.8089262888810461e-02  -7.3554903075755310e-02  -1.4103408075966543e-02  -7.1824597154139427e-02  -2.0196406548822543e-02  -1.4418859122758252e-02  -7.4610586048502889e-02  -2.4868729998762572e-02  -1.1350948914578093e-02  -3.0514843383408118e-02  -2.3934177359455383e-02  -7.2852431358927897e-02  -2.0690604435416666e-02  -2.7414422126782832e-02  -3.3531633675641659e-02  -2.6844812003419531e-02  -3.6449279053851327e-02  -3.9708277834387948e-02  -3.2720424701628281e-02  -9.2955502250309519e-02  -4.6234453709737527e-02  -4.6388844317239906e-02  -4.5254578465665059e-02  -4.3738849975896825e-02  7.8771913716599384e-01  4.2618168716483773e-02  4.3491222919280745e-02  4.0764198469820954e-02  3.5091852192897136e-02  3.1350650927711055e-02  3.0891232948570362e-02  3.2470026247999509e-02  3.6356050237980247e-02  4.0501712978560825e-02  4.5580897412409262e-02  4.9168227940927622e-02  5.2845599194822519e-02  5.4401373840206414e-02  4.4757367741485483e-02  4.3591218176951781e-02  3.5524593244295723e-02  4.0162532908550638e-02  5.5447954322444475e-02  3.5882289656991653e-02  3.0778695107766450e-02  3.3280859283944836e-02  7.7278882351901079e-01  7.7571311853147418e-01  4.2212020070479257e-02  8.0639420182412525e-01  2.9657873447538858e-02  7.6638252791095629e-01  8.0597564914628073e-01  3.3151829684217350e-02  3.1659080370099971e-02  4.3225576326362897e-02  4.2950548645397907e-02  4.0282797678714198e-02  2.6894761555373990e-02  3.4791675451636354e-02  3.4807331510176981e-02  2.6272239396520361e-02  3.9681668376212384e-02  3.0581171392695252e-02  4.2862049819728902e-02  4.8376665476409890e-02  5.3190427027436149e-02  3.0906677005362534e-02  1.4812050222631603e-02  5.0882495749524442e-02  3.2964839448927682e-02  2.8503631123932359e-02  7.6519224467591285e-01  3.9793905100104929e-02  2.9390007239743745e-02  4.8441853722802491e-02  4.1703625031847338e-02  4.3139361378780536e-02  4.1332016744353030e-02  5.0852419986110994e-02  4.4048553405855860e-02  3.2579375024248715e-02  3.6793909665354049e-02  5.2015897274565903e-02  4.3409164577463168e-02  4.6066847582117376e-02  3.6187069655513514e-02  3.9871644169076938e-02  4.8909487049386406e-02  1.7726173151854735e-02  2.8539988914147944e-02  2.9906816048413897e-02  5.0745249382232398e-02  5.4127594108147568e-02  3.0242487167009151e-02  4.0799936493034691e-02  4.0935542743725711e-02  3.9930738235994107e-02  3.8920432658130201e-02  2.6014706537239918e-02  3.6201105594259098e-02  4.2441102171985656e-02  2.8242419849579318e-02  4.0381520687098674e-02  3.7758191123928621e-02  3.7382563047254458e-02  3.1098654275059534e-02  9.5190780152627618e-03  3.3724690076591589e-02  7.7475779399898970e-01  7.7828434255709011e-01  7.9821372293235793e-01  3.0801271056917271e-02  4.4797262965818985e-02  4.4717794756003348e-02  3.4292588608133612e-02  4.1360380065179295e-02  7.5420164125942624e-01  3.9353686876803254e-02  2.9424281649818317e-02  5.4882805544512678e-02  5.0003186957516349e-02  5.1784653554584364e-02  3.4322461413868487e-02  4.7342646742700126e-02  4.0069486162570458e-02  3.2797199329082698e-02  3.5003873326161207e-02  7.5631806270748214e-01  7.5145749853719357e-01  2.6724178752490189e-02  3.2132146539169834e-02  5.3225338517425579e-02  2.5160298909982545e-02  4.4111442186950657e-02  4.2989240182682284e-02  3.8822292463049218e-02  3.6269991848195404e-02  4.2487116206673711e-02  3.5972161195629369e-02  4.2089614473499098e-02  4.4153602278111007e-02  2.5967806454932192e-02  7.7706669784127258e-01  2.8140907270077023e-02  3.0501023731469071e-02  2.5584245075813111e-02  3.8317363192852907e-02  3.3116946047758826e-02  3.3879530456027970e-02  3.8666517454420089e-02  5.4001959638309671e-02  4.2266176695988388e-02  6.0788104417747540e-02  3.1858547237150238e-02  4.1914310146978245e-02  3.6415338623617170e-02  4.3786621845595688e-02  2.5257815427876976e-02  4.1576717633374949e-02  3.6859483523616496e-02  8.4434799763965984e-01  8.4712901615913749e-01  6.7681300951417320e-02  7.7671600826948850e-01  2.6486545326943216e-02  3.0624268607311215e-02  2.6094233229768438e-02  5.1758698551853763e-02  7.7185311388155087e-01  3.3984477268297522e-02  4.6350166919944862e-02  3.0759592528683419e-02  3.0758685112797193e-02  -9.4440464240487243e-03  5.2836586834551273e-02  3.6651514309591356e-02  7.9128499065015745e-01  4.5164097716695550e-02  7.4658675324806234e-01  7.4900948190333805e-01  7.8927309219940345e-01  3.1744689087769576e-02  2.8647053271645635e-02  7.8779660407923757e-01  4.1186383332948676e-02  3.7335757895769733e-02  8.2962218769789986e-01  3.1056925301571000e-02  4.7061129996356567e-02  7.3965788982859337e-01  4.0552028284351650e-02  2.8015601356791819e-02  4.0923366640085342e-02  7.7797389825636465e-01  4.2099654026515408e-02  3.7404093040573710e-02  4.8558985874717249e-02  5.0908570656914121e-02  3.5048834007089240e-02  3.9206892908550242e-02  3.1832005899592966e-02  3.7965195243083179e-02  3.2403775337347028e-02  3.7468565258241632e-02  2.2847813709074190e-02  7.3364315904184052e-01  4.4912072035658328e-02  3.3965452140993974e-02  3.2452507365271499e-02  6.5977712029911068e-02  3.8267383565092072e-02  4.4669880131727305e-02  2.7206145757400005e-02  4.4195587019761666e-02  3.7332164040395910e-02  5.0327876356638011e-02  3.4937252645187551e-02  4.1797907011907345e-02  2.7870741429979511e-02  5.6357411088797403e-02  3.5681244142633184e-02  4.2864016407711508e-02  5.1562095248729505e-02  4.9808762647060030e-02  4.8431091871461524e-02  3.8608578559336762e-02  2.9886393201484205e-02  6.3947884499186494e-02  7.4519751167441506e-01  5.4056838140656108e-02  2.9322247360067298e-02  3.4268929867737351e-02  2.3613387223230354e-02  3.6726227053754938e-02  5.3149206423142130e-02  4.4148868049281913e-02  4.2964735045889782e-02  3.7940867252091434e-02  4.7899689948275037e-02  4.0866456708924206e-02  2.9229454650764382e-02  4.4890825464804766e-02  4.2264419912919647e-02  7.4519917877120001e-01  6.6180777615255981e-02  6.2376945165041421e-02  3.0455257374827571e-02  2.5132899683702352e-02  3.3078419722588341e-02  3.1903213203800018e-02  2.4070868386409486e-02  5.6741780990241276e-02  3.2619034286035048e-02  7.5203595567169190e-01  5.4504334911085098e-02  3.8540329155147705e-02  4.4219347206102329e-02  4.6799273855213576e-02  4.6162719538523612e-02  4.6946429660413048e-02  7.2618214735495290e-02  4.9139419221143073e-02  5.4987347782122289e-02  3.4772891974292112e-02  3.0618179082170020e-02  4.3316662832919933e-02  4.7788272489221406e-02  3.7761303030655106e-02  2.1029840094522280e-02  7.5440978393635838e-01  3.4331825644076670e-02  2.9660876835045095e-02  3.5669315353676991e-02  3.2798851100473300e-02  4.2256298629775910e-02  4.6975137717224773e-02  3.0697927627580480e-02  5.4479988386146275e-02  2.6024206139616746e-02  3.6449772861331893e-02  4.5888814285813873e-02  2.6582330066683726e-02  3.8886557820352982e-02  4.4087413887289109e-02  8.1931244558109462e-02  3.8964459653328148e-02  2.3651295243688947e-02  3.1960927812067400e-02  7.9010082026267558e-01  7.8640647002860598e-01  7.8828027206167572e-01  3.7469533789395743e-02  3.4980980593369897e-02  7.6836356408250461e-01  4.4113090583797920e-02  4.3422517469718161e-02  3.0844542801381096e-02  4.1550791936256534e-02  5.3172982874468692e-02  4.2653875770051843e-02  5.7025316211690810e-02  3.8401970858295047e-02  2.2011686778943534e-02  1.0865260305818084e-01  3.2851371432791106e-02  4.3590111983102919e-02  1.7857071413942854e-02  2.0583808348884857e-02  2.8944932631881470e-02  4.6192346813446840e-02  3.9872312369524342e-02  3.8328462114510659e-02  3.6375354530472533e-02  3.6489770414805937e-02  2.9920489154364200e-02  3.6209960917080654e-02  3.2513012457843223e-02  4.1798437478612213e-02  3.9931238114224575e-02  3.7454648986118229e-02  4.0320197592655253e-02  7.0960891784955002e-02  2.1985112924426869e-02  2.9406170240153181e-02  4.3281004155112442e-02  3.5002136019925453e-02  7.4102943586445383e-02  3.1126866645756150e-02  3.1955224407646712e-02  5.0530846655782523e-02  2.4304212723523767e-02  4.2500559288029469e-02  5.3621590478486442e-02  7.4928452342257826e-02  2.4736428060916780e-02  4.2984355589025379e-02  4.2502581105837163e-02  2.7318057622373517e-02  7.6913846353259896e-01  4.4865921525770056e-02  3.7551885787302501e-02  3.5607363997784504e-02  5.4104411781035637e-02  8.5159932567327762e-02  4.0354871619285991e-02  4.2566072591102816e-02  4.4678557001491849e-02  3.0564764365416875e-02  3.9934692188790075e-02  4.7557188253839214e-02  7.5748123537427670e-01  2.7826465999613543e-02  5.2451463358746848e-02  5.2781268294518270e-02  8.1304746027965547e-01  7.1477374335914201e-01  7.2666810329243225e-01  2.0198476757794560e-02  3.6252853305521575e-02  7.5792201019111505e-01  2.9103342312033483e-02  3.0481848450687552e-02  4.0838747199476035e-02  4.0231279308375410e-02  2.6117285727363541e-02  7.2164430697012549e-01  2.6221695680576636e-02  5.2609616685854690e-02  9.1604215835322078e-02  2.2894925179885655e-02  4.1281608627099106e-02  4.3088206158234291e-02  2.9957167091930342e-02  3.7814728864327150e-02  2.0766563666688515e-02  3.4672043329508268e-02  7.8215709959544233e-01  3.4371197714394335e-02  7.8161045457875966e-01  8.2133675451144827e-01  3.2642363666317765e-02  7.0786780067274702e-01  2.5403987805891325e-02  3.6307988657044037e-02  2.3909333267831671e-02  3.1164259453510541e-02  2.8964290098581449e-02  3.0273264459061831e-02  3.3474769382886606e-02  1.0195690295217179e-01  2.8589143110592918e-02  3.6630543772543815e-02  3.9298743822565423e-02  3.7284246352551273e-02  9.2480817758665651e-02  3.1302195693555711e-02  2.7229904274587088e-02  3.5654162260465666e-02  5.4660214766517376e-02  3.7120240990673556e-02  3.3480069220638051e-02  3.1464130537079166e-02  5.0111862220866374e-02  4.2144709975214585e-02  4.2511548651282212e-02  3.0804471761508457e-02  3.4953083635102196e-02  7.6559969222959590e-01  7.9428261896277685e-01  7.7624916366126040e-01  7.8121153076133121e-01  6.8884936403512387e-01  8.0600375045873496e-01  7.1221275183579202e-01  1.2163264009855149e-01  6.9988593733305027e-01  3.1596657399639384e-02  -9.8480909845939386e-05  3.0135598732943303e-02  3.4196038195777587e-02  4.5852434892139873e-02  2.7008030812557773e-02  3.6419327845287001e-02  4.0320108563023316e-02  4.4871071554569708e-02  3.0891333983439559e-02  7.0357286359021876e-01  7.6672339702798209e-01  6.8673058231280260e-01  3.3054604403589351e-02  3.0332814952359424e-02  4.1994174024117085e-02  6.3665346837959963e-02  3.9785488920235562e-02  3.5052626453971378e-02  3.6234412607305713e-02  2.7671727322109738e-02  7.7930685491265683e-01  1.0928700587073503e-01  2.8181902252238201e-02  2.8147152694042055e-02  5.4867129041814088e-02  4.4394533615193382e-02  3.0477952339504351e-02  2.9608296228391701e-02  3.9988168159843254e-02  3.2442352320719202e-02  2.4312832283805926e-02  3.2803952145405553e-02  3.1507806936362313e-02  3.0712315019875883e-02  4.2063849773902130e-02  2.1155009945078664e-02  7.9542684861328128e-01  2.0244033513664182e-02  4.8489468187641764e-02  6.7725855768378940e-01  2.8352084977523482e-02  3.2017603492495543e-02  3.9240112964215292e-02  3.9002661529083826e-02  2.9576436614542772e-02  2.4623984002815045e-02  4.2743227991270782e-02  4.4920634361108491e-02  4.4475988954232812e-02  4.4021183567406509e-02  7.8716522658909027e-01  3.2911515366325923e-02  3.6097067121045712e-02  3.8417854575410332e-02  4.2279242642761374e-02  4.1775195402488370e-02  4.4043243250161311e-02  4.4374209810331251e-02  3.2587867019544872e-02  3.3010761023574364e-02  2.9503586498712410e-02  6.7741611570508464e-01  4.6646242131984969e-02  3.4092178384072851e-02  4.0413340455933561e-02  7.7244677050839661e-01  7.8680581600143695e-01  2.6256573724126743e-02  7.6041410712473834e-01  3.4737812644877256e-02  3.7580081861594485e-02  3.1612620467816641e-02  5.4895816748655131e-02  3.0605633124537145e-02  3.0478171308297081e-02  4.0107062435939055e-02  2.9280182470607100e-02  7.6605811251746803e-01  2.3277775487815365e-02  5.3880212230901663e-02  5.4818620322231400e-02  5.0289315610005221e-02  5.0125264417067328e-02  5.1677380328602480e-02  3.1251423066420224e-02  3.3185779648507947e-02  4.5086242741805067e-02  5.1730073725167199e-02  3.9095163854802599e-02  3.3126186324496931e-02  3.2163536193022604e-02  4.5389952380553433e-02  3.2739508889665828e-02  5.5182180513856552e-02  5.0540764719209014e-02  2.9667902944219598e-02  7.8450371977683886e-01  7.7303086631672779e-01  4.4082328611712317e-02  4.8562561079837356e-02  3.1892507733678341e-02  3.2785786893845981e-02  4.2486880320633455e-02  3.3536345495002916e-02  3.4754821729397582e-02  3.4241839636596556e-02  1.1162931529550717e-01  1.2179476997054134e-01  3.4762656313314190e-02  4.3764009475681716e-02  4.1699214204003736e-02  4.1934751762657950e-02  4.0490709748240136e-02  2.1756799656357396e-02  4.3053870623908780e-02  4.1970704470771544e-02  4.0476559142201170e-02  2.0740544439190194e-02  4.4095062956596487e-02  2.6098209128386052e-02  8.1387085839052875e-01  9.7296145025507486e-02  3.4374073772554331e-02  4.4934867343992900e-02  8.4745833965869918e-02  8.3370397666591309e-02  2.5077059438710990e-02  5.1545434468926073e-02  3.7931484877494447e-02  2.1830384275261520e-02  7.6300150410834455e-01  4.7734770932062062e-02  5.3879015268383144e-02  3.6695581677994721e-02  1.4137088996770730e-01  3.9458817288010969e-02  2.6463662048278151e-02  4.9072201932157319e-02  4.3792148918864668e-02  4.1547258562885991e-02  4.1762659653541957e-02  3.2997071923088719e-02  3.1624144598929552e-02  2.8077323734358482e-02  3.6673472942490577e-02  8.2576886794074666e-01  2.8232843694689889e-02  4.4824687945152979e-02  3.4607300926408360e-02  2.0497864665275152e-02  4.7003133884694383e-02  6.5381368799748085e-01  7.6943031113222571e-01  3.1206921770126232e-02  2.8568490231573384e-02  4.1340492622544418e-02  6.5545680208283455e-02  5.3650008285809493e-02  1.3664781132127798e-01  7.8129332913992167e-01  7.7380400219045975e-01  7.7030389167245639e-01  5.4081664789990776e-02  2.6916448970533052e-02  4.1859241718669754e-02  4.1447604919017590e-02  4.2675352151215484e-02  2.1666261951235725e-02  2.0434004580399831e-02  2.8019568276477363e-02  6.7543168229298745e-01  3.4499371196239727e-02  3.7733563487973985e-02  9.4652847570568785e-02  9.3769851796731071e-02  2.3850789684786600e-02  3.0183636809048897e-02  1.1739014205579416e-01  5.2783539596332966e-02  7.6682575253174257e-01  3.3220275495114492e-02  4.7361426122267986e-02  4.6152965682631039e-02  3.0350616155935688e-02  7.9472432682613581e-01  1.1271341066724798e-01  3.6430009173539245e-02  4.4876418127377526e-02  3.3336117429115963e-02  2.3266042967792531e-02  4.1905987164634277e-02  2.6960879142356713e-02  2.6930511116508137e-02  5.0446900778590077e-02  4.4291161343987279e-02  4.6233148899102662e-02  3.9666682554472900e-02  3.6225043554299854e-02  3.8460003956599313e-02  4.0369643514375622e-02  3.1894910445193499e-02  2.7005310452563065e-02  3.0852272267043668e-02  3.2891618713503594e-02  3.1184651955218783e-02  7.0237881481576647e-01  4.1561924371449545e-02  2.6975345701834980e-02  2.1084108288646305e-02  1.1890352177167973e-01  2.0757953420926397e-02  2.8914351440969523e-02  4.0341118757212295e-02  5.2633435805078614e-02  3.6365151653449349e-02  5.3880281329443801e-02  4.2409972195514137e-02  6.3856987817465394e-01  3.6968872677769736e-02  5.0448750141267179e-02  5.1281959922067591e-02  5.4237902614971301e-02  3.9558484393925904e-02  7.6389836910833231e-01  4.1599349093705294e-02  1.2259631835048350e-01  4.8072408657332942e-02  4.5737518146237797e-02  4.5892186340177069e-02  3.7846791754064732e-02  3.8639856637670535e-02  3.6732396624125384e-02  2.0555738201913077e-02  3.2054484152463543e-02  5.2109726692364557e-02  5.2571757560902994e-02  3.5987630796866919e-02  4.8086195932056167e-02  4.8586523737458746e-02  7.9454147291999933e-01  3.3287869362916542e-02  2.6490366895428087e-02  3.4421528654913616e-02  7.9232799935172894e-03  4.1343208841819523e-02  6.6812186625968017e-01  4.4416439466607102e-02  4.7714366952250356e-02  8.7548858702447774e-02  4.3293608784645402e-02  4.3889760797869985e-02  3.3661741159656401e-02  1.3769858184780628e-01  1.9141560741975483e-02  3.1583415930509735e-02  -3.4193063399992479e-02  6.3150962844033531e-01  3.0177251449035554e-02  6.5107627971645698e-01  3.0574045000409802e-02  4.3453331989812140e-02  3.7510033482851889e-02  3.4697421822635403e-02  7.8781279822148087e-01  2.7788955011562876e-02  4.1693331255378850e-02  3.8495123346600137e-02  4.9501811202391506e-02  3.3077292952862651e-02  3.8416391085227548e-02  3.7876342113053775e-02  3.4261549152788097e-02  3.5603955050808010e-02  2.9918997724419340e-02  7.5760369135803174e-01  4.4336799335060399e-02  7.3675846948442258e-01  4.4201467425374355e-02  6.1151245253853398e-03  5.2203731058514516e-02  3.4442332413026959e-02  3.1519180969195482e-02  4.1939772481992495e-02  8.2357846173077187e-01  8.0302370870915130e-01  4.0636629281326303e-02  2.0971512899829989e-02  2.9696800828028905e-02  3.8214417467296077e-02  4.4357515854204388e-02  3.1982666338128490e-02  4.1822328487209501e-02