<?xml version="1.0"?>
<VTKFile type="UnstructuredGrid"  version="0.1"  >
<UnstructuredGrid>
<Piece  NumberOfPoints="1312" NumberOfCells="2508">
<Points>
<DataArray  type="Float64"  NumberOfComponents="3"  format="ascii">-1.002276878177399 0.2489975727123442 0  -0.9980083953430728 0.1379787246930813 0  -0.9812502797131309 0.02893369756012981 0  -0.9523234217127255 -0.07772504153424446 0  -0.9115878416036924 -0.1805195439243757 0  -0.8589439173370029 -0.2791835377938681 0  -0.7959207466019559 -0.3708053722277383 0  -0.7233809072174477 -0.4544314273582735 0  -0.6433110735553405 -0.5284855446953888 0  -0.5589051795134656 -0.5912590637716675 0  -0.4711223474396996 -0.6435389231468629 0  -0.3793019271051981 -0.6862732967358648 0  -0.2849983849817075 -0.7194256480244917 0  -0.1881320292477426 -0.7431147814344435 0  -0.09174462971097143 -0.7566984458186213 0  0.001365390384818876 -0.7608197023851798 0  0.09438118444932685 -0.7558301222778471 0  0.1903884058025289 -0.7414516239172702 0  0.2866673510558783 -0.7171866299687814 0  0.3817643231299027 -0.6826688627162446 0  0.47210924728173 -0.6393742338648116 0  0.5591831864917339 -0.5865347446086314 0  0.6424627765469546 -0.5235626988228286 0  0.7209086712488371 -0.4500502719215796 0  0.7924919178000244 -0.3668770338889941 0  0.8552782997092224 -0.2750329758856945 0  0.907308351272142 -0.1766033417533411 0  0.9479169795644089 -0.07300779630122287 0  0.9765066643059006 0.03400969891372016 0  0.9928895407864966 0.1434396299095644 0  0.9968239500050611 0.253719682590046 0  0.9881064846484909 0.3636228768556164 0  0.9669539626786432 0.4719683138615232 0  0.9339072863190928 0.57657935290967 0  0.88940244973086 0.6768997917430239 0  0.8337040018171393 0.771978590040472 0  0.7680123767551237 0.8598390499085427 0  0.6928505728191967 0.9401563302057916 0  0.6095286093997455 1.011523739488454 0  0.5186790859398365 1.073361679639769 0  0.4215930206213313 1.124801736921271 0  0.3196143693163699 1.165210656705609 0  0.2134181433050726 1.194375489424225 0  0.1046579812601088 1.211795313946668 0  -0.005219017381894757 1.217520415906159 0  -0.1146158289193872 1.211351319131017 0  -0.2232448828547966 1.193106148857611 0  -0.3289981383069999 1.163220439837685 0  -0.4307520640687822 1.122093611943353 0  -0.527759513324044 1.069970499578283 0  -0.6180082609507526 1.007811077304258 0  -0.7009650528219754 0.9362576536780937 0  -0.7758414253693156 0.8556359954395764 0  -0.841338641068509 0.7669288239210357 0  -0.8962713068909548 0.6722562511778756 0  -0.940412387455573 0.5717921568835639 0  -0.9730436712511285 0.4670854627109957 0  -0.9938667762207619 0.3589824558456119 0  2.568970421235271 -0.000219038392602852 0  2.561033925990142 0.2017771388352705 0  2.537377044948558 0.4016566073316014 0  2.497970819659219 0.5997063014839067 0  2.443217645817019 0.7938517561297638 0  2.373350106826126 0.9832742760749308 0  2.288987669344067 1.166270610774308 0  2.190415162315745 1.342290289796058 0  2.078349086841512 1.51000790787022 0  1.953470441851084 1.668417055120592 0  1.816527012073925 1.816558407748111 0  1.668557807692276 1.953341161118288 0  1.509855824786433 2.078451232391552 0  1.342311306484092 2.190402928789297 0  1.166269541491608 2.288990065476745 0  0.9832800281048223 2.373349903808858 0  0.7938573032138072 2.443225163157498 0  0.5997068081554991 2.497973762896589 0  0.4016563230320116 2.537379612306868 0  0.2017786399465563 2.56103676617692 0  -0.0002198440733968054 2.568973239367546 0  -0.2013384026824769 2.561071469539193 0  -0.4018747545158041 2.537332094403234 0  -0.5999297929611005 2.497940519038955 0  -0.7936474255193756 2.443306436066376 0  -0.9830983024633267 2.373404049328959 0  -1.166485726904248 2.288871584793004 0  -1.342097037397986 2.190524393375542 0  -1.509993746577566 2.078327512631408 0  -1.668581504578862 1.95331938952474 0  -1.81638361941948 1.816691579142113 0  -1.953583152786474 1.668273385645986 0  -2.078333874665536 1.510029589065967 0  -2.190430084540507 1.342263605878014 0  -2.288885060770952 1.166458355456012 0  -2.373400827157139 0.9830982491830523 0  -2.443219281431688 0.7938461857035354 0  -2.498035138422898 0.5995339884643737 0  -2.537348861822357 0.4018755938257138 0  -2.561038553711407 0.201741511274091 0  -2.568971456346388 -0.0001879838327815472 0  -2.561060770159509 -0.2015370131818276 0  -2.53735069785378 -0.4018800763392412 0  -2.497997567654331 -0.599716024194179 0  -2.44324434871301 -0.7938584399840345 0  -2.373427072815188 -0.983105556473939 0  -2.288978132691894 -1.166292263931294 0  -2.190414666749251 -1.342288697080538 0  -2.078349983436899 -1.510006388207435 0  -1.953451562333147 -1.668435681799994 0  -1.816671018003575 -1.816405811793475 0  -1.668248550412066 -1.953601719212846 0  -1.510180925510718 -2.078213183552168 0  -1.342275182480242 -2.190392738024639 0  -1.166091756198957 -2.289071188922667 0  -0.9833063931022397 -2.373336547283838 0  -0.7936468371297412 -2.443306326101206 0  -0.5999285038533604 -2.497936577868707 0  -0.4018748949788269 -2.53732466778782 0  -0.2015536548439462 -2.561040613842443 0  0.0001896934458998017 -2.56897301781899 0  0.2015360608285856 -2.561062257608137 0  0.4018766780054903 -2.537353410087159 0  0.5997396412945988 -2.497992324106284 0  0.7936788586825033 -2.443296840881631 0  0.9832728094183356 -2.373352450536045 0  1.166291674175236 -2.28897682750204 0  1.342129201493893 -2.190505725731381 0  1.510155305375741 -2.078235636314365 0  1.668399134184125 -1.953484071393697 0  1.816561488842886 -1.81652375936658 0  1.953338750247188 -1.668559198570047 0  2.07832511073967 -1.509992451450066 0  2.190508078550792 -1.342122613927551 0  2.288964435343084 -1.166315433945816 0  2.373437040058763 -0.9830819264161023 0  2.443179128208127 -0.7940353289424219 0  2.497969278526117 -0.599711997586946 0  2.537323073865314 -0.4018694753319293 0  2.561068376772314 -0.2013383543306226 0  -0.003308182705847118 0.2331743018020185 0  -0.1021327566746633 -1.661024375974722 0  0.8164936392917256 -1.470275898879284 0  -1.042903930215291 -1.332735645016634 0  1.451177536463411 -0.9133956035753933 0  -1.629581849230922 -0.6089279066822409 0  1.753634599643063 -0.179387846639233 0  -1.780734538750705 0.1957836036006733 0  1.715257763564382 0.5865483744066111 0  -1.582639311366588 0.9310300221626836 0  1.393864087407864 1.221783804787261 0  -1.110063793514533 1.505072091415306 0  0.7885469873347456 1.710348797466153 0  -0.4588846743886406 1.832291499076904 0  0.1715708228287346 1.838384519678392 0  -0.6920680906397831 -1.830891687045826 0  0.3886481174347652 -1.961057081525016 0  1.373045361274354 -1.487986294811042 0  -1.603293061087717 -1.180491756431182 0  0.4987042713242499 0.2758682882826718 0  -0.5062847343937014 0.2183537391515766 0  -0.5022514692392593 -1.320902949212178 0  0.2672681293796732 -0.1750596572728828 0  -0.2253345988613011 -0.2032943088131693 0  -0.2609243141468753 0.6554844281524971 0  1.93259082574656 -0.7160912719742325 0  0.2909590454569549 -1.286788703393261 0  -2.042669598452339 -0.2469872361643647 0  -1.12724660822262 -0.8114802620686089 0  2.059530048303785 0.2252759359351195 0  0.9266218702349476 -0.9702781116702119 0  -0.2485953055000727 -2.104534150229312 0  0.8484658359347497 -1.932950629702918 0  -1.146111322336051 -1.77950828055242 0  1.826061939439166 1.046708974901444 0  -2.046966012087837 0.5706781664268832 0  1.324998493037899 -0.4415205382104357 0  -1.567221580628524 1.404483932144259 0  -1.437427133653743 -0.1644564335856842 0  0.2290331472925554 0.6841528439031387 0  1.73405243522359 -1.24761099997753 0  -1.941259108087673 -0.9124449030473439 0  1.25921959822748 1.678469970401267 0  -0.907028076030225 1.916891664536661 0  1.462931767519701 0.1827478272981921 0  -0.1024224656322066 -1.240591037891801 0  -0.7395368923807948 -0.9853515978945832 0  -0.08521592233144835 2.165783922431856 0  -1.434553279510882 0.491017998276468 0  2.129134915739112 -0.3563144518835065 0  0.5400420824537669 2.069665306465753 0  1.323964750949153 0.7820201887761566 0  -1.149881764078041 1.070443320238041 0  0.9578788621377916 1.296387560358041 0  -2.173371929433984 0.1258591457424573 0  -0.6757381951042433 1.465769379358419 0  -1.392515430926808 -1.493252336202711 0  2.065833246303757 0.7521060178363044 0  -1.96976453833491 0.9491102424303377 0  -1.277736740809678 -0.4879784707598738 0  1.632682752317013 1.502276273724262 0  0.5497807868271174 -1.032587575120839 0  0.432591485102733 1.541040422073045 0  -1.397586543974892 1.722235130895434 0  -0.1414440065275058 1.600612419460206 0  1.215756526713975 -1.833388488620832 0  -0.6338782745557391 2.135934215745153 0  1.041629617288995 1.959363742482325 0  -1.974078020413414 -0.5771127875229922 0  1.219278133310916 -1.171788697327324 0  -0.6087270617372782 -2.160630082807351 0  0.2413568625515018 -1.635558117887849 0  1.026473923440047 -0.6389491732923135 0  -1.445566253067263 0.1620876556497684 0  -0.9487817118244841 -2.042845707941297 0  0.05495973883060854 -1.962048788658536 0  0.5999535470609498 -1.711909607335785 0  0.5885623147055842 -0.06024566831851556 0  1.666472043140683 -0.5025087346568285 0  -0.5565834545587576 -0.1252434957839413 0  0.0295954353970017 -0.4113031412429897 0  -1.291434445175468 0.7792658973480493 0  1.424847197781887 -0.1367852428028531 0  -0.5856678729694097 0.5463429786228833 0  1.135026492956295 1.033864835236078 0  -0.3329931398140826 -1.043038037585027 0  0.2444032185148683 2.230193428261281 0  0.6342286964486639 -2.168386818554282 0  0.224358389593055 -2.240202854029477 0  -0.02909161665688959 0.8920533711369931 0  1.298718964198147 0.4566855195013786 0  0.5491219281483215 0.6296579752444431 0  -0.9113435689770937 1.265253628462555 0  -0.8914848706575665 -1.598227647789427 0  -0.3777868429076159 -1.815196029327886 0  -1.74451548635344 0.4986309546936885 0  -1.769957999982873 1.177591445220365 0  -1.911337445807719 -1.216816872809247 0  1.675032525515755 -1.54656076866061 0  -1.707195962724303 -1.476949042193958 0  -1.72445483591058 -0.309077275979
[...]
<PointData  Scalars="f_4123-1"> 
<DataArray  type="Float64"  Name="f_4123-1"  format="ascii">3.4949228915205094e-01  3.4222569524913882e-01  3.4745636207225056e-01  3.3754586268004244e-01  3.3679270995668387e-01  3.3563455797817815e-01  3.4792532366579204e-01  3.3644786683115335e-01  3.9833611925021456e-01  4.1875118127985389e-01  4.2818364593771380e-01  4.3892322183822174e-01  4.1303581989968513e-01  4.2849338453449187e-01  3.3751280374704906e-01  3.1404574575187472e-01  3.4041591910558600e-01  4.1899953371828669e-01  4.3396035794626980e-01  4.3132005593632966e-01  4.4454029801358591e-01  4.3738763814732168e-01  4.1326265992301808e-01  3.4966986829971980e-01  3.3691071554257779e-01  3.3682724275373316e-01  3.4978153904001674e-01  3.4076698683530038e-01  3.4521257199888433e-01  3.4352494100445125e-01  3.4337186020953164e-01  3.5034290340214153e-01  3.5680217807912012e-01  3.4922738106358109e-01  3.5438890133368417e-01  3.5648192963052666e-01  3.5514997877882037e-01  3.5420594911313502e-01  3.6232387217348933e-01  3.5967729214051086e-01  3.7163020616407760e-01  3.6809320151715430e-01  3.6023904210028629e-01  3.6778833629675750e-01  3.6457506039675863e-01  3.7298164090985020e-01  3.5921884699493589e-01  3.7438393550596638e-01  3.6704242748147836e-01  3.6567110321317237e-01  3.6345694769157832e-01  3.6304308302532468e-01  3.6361149557226558e-01  3.5377182904862503e-01  3.5057220219576973e-01  3.5376185760272610e-01  3.5404648364300967e-01  3.4882895448045370e-01  -1.5164908115087351e-02  -1.8051492706825240e-02  -1.5911406854705535e-02  -8.8476285424050893e-02  -7.8357233363886614e-02  -1.1611695079733217e-02  -3.3036856006877068e-03  2.5538421324898066e-03  2.7679401058367014e-03  4.6811096625343175e-03  4.9107721181147704e-03  2.3906610590208079e-03  -2.2048777547370529e-03  1.2993592583785196e-02  1.3096239918121647e-02  8.9030014082914447e-03  -4.7159240954965835e-04  -6.1508116405463269e-02  1.0688127536473415e-02  1.2571900762126718e-02  1.0738349166537721e-02  1.1617028971816018e-02  -4.5335404004808177e-03  6.4208490033174194e-03  1.0308089736516255e-02  -4.9447938212020565e-02  7.6647205000416824e-03  6.9753042398408051e-03  -5.5723172286406150e-02  4.0077723293873808e-03  -4.1657573577528003e-04  -2.4112812938668492e-03  8.5334552795410298e-03  -4.7688230323023317e-04  -9.3310317942228525e-03  -7.7081763197299077e-02  -7.9825445558610389e-02  -1.3973292616501690e-02  -8.5199003832738922e-03  -1.7594983690074301e-02  -2.0419751703225165e-02  -1.2678401102227167e-02  -7.1395831775713115e-03  -1.2193095807625095e-02  -9.3105879766388604e-03  -1.1291569628969423e-02  -2.5621727549688315e-03  -4.8823726827971316e-03  -3.1079567542861186e-03  -2.5358908695498469e-03  -4.2003261893495585e-03  -7.8506538946282456e-03  -2.2597630547888576e-03  -6.2166188745750361e-02  -1.7993780050549336e-03  -1.2100721702703700e-03  1.4698214250721108e-03  -3.0742751834716135e-02  -6.5988808550958108e-02  -9.8991815155367591e-03  -4.2978440998835410e-03  1.9693771615642564e-04  4.2566692843421829e-03  7.1319033269384052e-04  1.1959509055713329e-03  -1.2278856793053671e-03  4.9212053605981873e-03  -5.3701025271927121e-03  1.0070314425989929e-02  2.7751499028522649e-03  1.3841503927166670e-04  -6.1240615264647191e-03  -7.8784678098026001e-02  -1.1611522021101451e-02  -7.4476459795597555e-03  -5.5428775734298556e-03  -1.6138942943525282e-02  -9.0318369908015381e-02  -8.6507517631909697e-02  -1.8641342866158338e-02  7.9381986116099801e-01  5.1583968816600448e-02  5.2072952191209824e-02  4.9000669924208456e-02  4.3110508149083154e-02  3.7941631464035258e-02  3.7202744034449585e-02  3.8959624323532671e-02  4.1779174564124291e-02  4.7384706759125136e-02  5.0608603588251928e-02  5.7459454910678269e-02  6.0161991541443000e-02  6.3898185126821161e-02  6.4882306513606852e-02  5.2442380988107891e-02  5.3181165902603370e-02  4.8087752615774235e-02  4.2585139704149441e-02  7.7935981471068105e-01  7.8148234156248930e-01  4.5682640896021240e-02  8.1321493687717372e-01  8.0993128859862873e-01  7.7175624888395389e-01  3.7919216530023440e-02  3.7177767847623180e-02  3.5999013087496784e-02  4.0806749566699593e-02  3.7375805873009614e-02  5.0029696605014301e-02  5.1667414190180089e-02  5.1430050026920894e-02  4.8663934635498916e-02  4.4323017345343045e-02  3.9869015843316133e-02  3.3114628856019124e-02  5.1120238649762006e-02  3.2717610593798178e-02  7.7022026144433053e-01  4.2141245357701307e-02  3.6965210248026799e-02  5.4389470536216289e-02  5.9905875395703807e-02  3.4149644521131013e-02  2.4575447000999652e-02  5.0323940880780585e-02  6.2871564438240657e-02  3.9419663525218460e-02  3.4870374982078310e-02  6.1445693763154355e-02  4.2715335810199685e-02  5.0993714233493671e-02  5.3958432374376725e-02  3.5617303230845762e-02  5.9920264334869473e-02  4.6302278925702177e-02  3.9062833443491228e-02  4.2739329875869848e-02  3.2820934541366718e-02  4.8046053473941933e-02  5.3389212269687764e-02  6.2140131303753114e-02  5.3269031843334008e-02  6.3730171921265608e-02  4.8385435919343134e-02  6.0293956365072475e-02  5.6031640161666223e-02  3.6314765276947561e-02  4.8060545002198987e-02  4.8947661645716539e-02  5.1584958199525272e-02  3.5926478570587901e-02  3.4957932263420304e-02  4.7817998078723459e-02  5.3357133784074931e-02  5.3510899530581711e-02  7.8465449190162340e-01  3.8129187250838678e-02  7.8239530094203447e-01  7.9014432034505844e-01  4.4624649243496101e-02  3.1784978725157557e-02  7.6278222318328170e-01  4.9175060043233534e-02  4.4214894403815118e-02  6.1088207733798458e-02  4.8756543667093206e-02  4.9383834366544949e-02  7.5699536605636253e-01  3.7494665748021246e-02  7.6399749429501251e-01  5.4075704815644297e-02  5.1432511418083963e-02  5.3288675206604068e-02  4.1757964477293345e-02  4.7156543384517961e-02  3.7111977472836719e-02  4.2291100902035285e-02  4.0360153808777804e-02  3.6791237793930384e-02  4.5111734329641079e-02  4.0709839683713903e-02  3.3428905437089033e-02  3.8040086214928714e-02  6.2249548525481882e-02  3.1274723971905095e-02  3.6984667580334744e-02  7.3823263645018455e-02  3.4037883779224766e-02  6.4788285505421664e-02  1.4989571324549474e-02  4.6734521861157077e-02  3.8238885582925056e-02  5.0756610984556562e-02  4.7097264987705521e-02  4.3083209701281967e-02  6.2665048229478229e-02  6.2940302518924310e-02  4.0956644883957463e-02  3.2403943586603284e-02  4.4168044312474848e-02  5.6655578352266187e-02  4.7101923399123329e-02  4.6050789461739260e-02  5.1778825622750768e-02  4.8425540614865030e-02  6.2739833127944039e-02  5.1994922570458117e-02  5.3904613712465327e-02  5.7607539716237326e-02  4.7540186488007549e-02  6.1998887032614580e-02  3.9551423874705255e-02  4.2249773003147639e-02  4.3043603314188973e-02  3.4234198400426852e-02  7.8607544404962337e-01  4.4497415504617367e-02  4.4192250542070308e-02  5.0073423219572047e-02  7.4907284028324805e-01  7.4445942125699893e-01  3.7537812269168309e-02  3.1145078225960413e-02  3.4463022134207981e-02  3.6867437398385640e-02  7.9721694182946623e-01  3.1507282232367081e-02  7.9752811050812633e-01  7.8298496114587590e-01  7.7847984315466323e-01  8.5615163646406311e-01  8.5222704543186878e-01  8.2788566238935835e-01  4.5474997423074197e-02  5.4062801645034339e-02  7.4599089438434563e-01  3.0466645560571708e-02  7.8368824113520696e-01  4.7350499435010435e-02  3.7080679632802677e-02  6.0584092854989356e-02  3.7205568827326022e-02  3.2023799812392201e-02  4.1685236831330033e-02  7.3682733242551979e-01  4.3292567491720849e-02  3.9589993077115498e-02  4.8434665564828193e-02  3.9309884961019032e-02  4.5582705991415881e-02  5.0612037078932616e-02  4.1680254029877073e-02  5.8929016669536011e-02  5.7091284729657465e-02  5.3934733513193112e-02  4.8179030348808057e-02  3.8007203901096673e-02  4.6579234491726088e-02  3.7467490677721163e-02  4.8174461456143139e-02  1.6944466403144332e-02  5.0762048439334136e-02  3.2945191994730075e-02  3.5383208029158814e-02  5.0296102598387106e-02  3.9023951958746757e-02  4.4045300843030134e-02  3.6394503896614042e-02  7.5675842980390551e-01  3.8905249061431141e-02  5.4818059351211118e-02  4.4119085105120456e-02  5.6805888302561121e-02  7.4042438054783799e-01  4.6575364031508464e-02  7.4753734534242355e-01  8.0663568515823247e-01  5.3472558326172086e-02  4.6509973467094221e-02  6.2594681161550494e-02  3.0074784040347833e-02  4.4435748359155175e-02  4.9590304680237202e-02  4.8973082249907644e-02  3.4385062883619463e-02  7.6757830211847344e-02  5.2704134695844826e-02  4.1170424851589685e-02  6.5797140126740747e-02  5.7858842760053708e-02  5.2217252201208063e-02  6.5896144592720099e-02  5.7284680303142391e-02  5.0792991269293444e-02  3.9335216489317093e-02  3.6074875461169935e-02  4.5097133172476905e-02  4.1595516338150298e-02  4.5924777965491895e-02  3.1463031493432062e-02  7.6689719352432573e-02  6.3693948721494364e-02  6.0703170371647630e-02  6.2420860994223663e-02  4.6968246844914158e-02  7.0198287457223160e-02  7.4729458411847402e-02  4.5178632960577246e-02  5.0326326459605393e-02  3.9768748221425718e-02  3.8580439240131652e-02  5.4224909711940536e-02  5.5386149686905535e-02  4.5302004434187471e-02  3.6277266637575863e-02  3.9610947840252347e-02  5.8610530194050790e-02  5.8428826439364409e-02  2.9828423135262135e-02  8.0115139758389214e-02  3.3988136535381124e-02  9.0232189885868300e-02  3.9159887078165492e-02  7.9434703981724586e-01  7.9629579395216066e-01  5.7269974107879949e-02  3.6077174220444888e-02  4.7587439371747295e-02  6.4631682487603911e-02  3.6374965413692208e-02  5.2100597787104345e-02  7.9452701762830813e-01  3.9621213147363971e-02  3.4798414741358009e-02  5.1555299317047519e-02  5.5204217816745477e-02  4.7215767187752437e-02  5.0030935897842140e-02  1.3353218281449519e-01  8.5488160809485625e-02  8.2412343538216956e-02  7.7294571986589045e-01  3.7549288866577178e-02  7.6371398181314110e-01  2.8474485590407824e-02  5.5763406534302826e-02  5.6840438758898763e-02  6.0765140463223212e-02  6.4159503803534038e-02  2.4503257884853229e-02  5.6908875727033750e-02  6.4073451388939301e-02  6.4930559215329267e-02  4.0633876060489162e-02  3.4002179108284708e-02  3.7961742215412264e-02  3.6966032733716167e-02  4.5527747901362693e-02  3.3299078388552512e-02  4.2220339785637960e-02  5.1110957513654222e-02  5.0552957803760408e-02  4.1384671717661317e-02  4.2251737734145284e-02  5.1828182209347866e-02  9.0573409487132356e-02  4.6110258346289866e-02  7.7485756529098582e-01  5.3184835993045722e-02  4.7533475619925748e-02  4.4025656185440694e-02  5.2972687314054696e-02  3.6260565169506688e-02  5.9290789443122383e-02  3.6817270998850259e-02  3.4538391655690157e-02  2.2427426748043693e-02  5.2904944882129781e-02  2.9870337103090033e-02  5.1786478522454278e-02  7.9323971622654288e-01  5.3648238945504925e-02  3.7180210853060329e-02  7.3018815109432289e-01  7.1766354669166676e-01  3.5665742121721009e-02  4.1619254780840428e-02  7.4949612958289713e-01  5.1944595332137453e-02  7.7701314169926228e-01  8.1909035466914826e-01  5.0457046630292712e-02  5.3520639752690342e-02  4.4937481025415074e-02  4.4303983403833749e-02  3.7321713945091838e-02  9.2724770990077504e-02  3.5994585931822740e-02  4.4813201939108087e-02  4.2106274511079407e-02  7.1040801475137971e-01  2.8745877229640771e-02  3.2578357575377664e-02  7.7048951087581086e-01  7.7135514101015701e-01  7.1821827604452115e-01  4.3164558190658425e-02  5.0856964990315001e-02  2.9567824062283213e-02  4.9841896307727243e-02  5.0782376334529096e-02  5.2506708933573357e-02  3.7331139036323041e-02  9.0895068891579126e-02  5.6301720137853985e-02  4.6548106293561466e-02  1.2366299501873823e-01  1.0114866952673914e-01  4.5294437384539352e-02  5.9071084449085300e-02  7.1695265203842551e-01  5.1631425202598398e-02  6.3039223898833874e-02  6.3873227609423849e-02  4.6717922994265103e-02  4.8964282933748569e-02  4.5671473382011434e-02  4.8390329540403253e-02  3.6860109279395877e-02  7.2058799416979935e-01  7.1666666926099287e-01  5.4213756597889913e-02  3.9907127916216638e-02  3.2898619525594440e-02  5.5631549656960641e-02  7.8642604904928559e-01  4.6899250159583510e-02  7.8527552203722362e-01  7.2665038654709468e-01  8.0646337075825913e-01  8.0925587300956559e-01  8.2862262129678299e-01  8.1125361986618694e-01  7.2429068409257558e-01  7.9303338411377045e-02  5.2874771991886130e-02  4.0499204753399042e-02  3.8751613317340790e-02  2.7722943117150432e-02  7.7226505420908487e-01  4.0522905127279289e-02  3.6350904539501155e-02  3.5305151187326585e-02  3.2835312500742571e-02  4.2690529525662879e-02  4.4194926463551873e-02  4.1016255291351805e-02  3.2098035332968261e-02  3.8186060931627686e-02  3.6671371510683060e-02  4.6196352222601600e-02  4.0942394543238357e-02  4.1452702267655579e-02  3.8681522534125622e-02  5.2542965574254717e-02  6.2288563642792595e-02  6.2768694437814618e-02  3.9128721543951771e-02  4.2576254430609736e-02  4.2631968044902498e-02  6.1675979129868878e-02  4.3941565938104034e-02  7.6796999977668268e-01  3.8405320973350615e-02  4.0428176340212681e-02  3.8159572638432976e-02  7.0097431824656931e-01  5.5997987566080418e-02  3.1251514963217375e-02  3.7445825095814705e-02  3.6072716356456556e-02  3.4804519753942428e-02  3.5978554225072519e-02  2.7179566854289201e-02  3.1572593783357382e-02  8.4249700629672941e-01  2.8106613167871709e-02  4.7233858195056232e-02  3.7156514183241104e-02  5.0235184962421055e-02  5.2294966400842684e-02  4.9388486305122326e-02  4.1643421554875930e-02  1.0492151827285488e-01  5.8451791053078801e-02  2.9109873013109900e-02  3.1475518479701474e-02  5.0033288756645609e-02  3.6104856594782749e-02  9.9463367993920249e-02  3.9675771549588623e-02  4.5977002528232690e-02  4.5480049776898110e-02  4.8074587053598725e-02  4.3226745217531781e-02  4.9950730062145059e-02  6.0342005763530437e-02  5.1751194014655902e-02  4.0686996311129653e-02  4.8323714132479469e-02  3.5845860753275983e-02  7.0658055986092860e-01  4.3303788626293825e-02  4.7197701843507286e-02  4.0336329488564811e-02  3.7406608208693903e-02  5.1169078160775823e-02  7.6474034580727956e-01  4.0402978790121384e-02  5.0731413537443995e-02  4.1409174214674091e-02  2.4759619503617446e-02  3.5328173924437926e-02  3.6540508320762305e-02  4.3947591697478625e-02  4.9715405485858358e-02  5.2839943160458730e-02  7.8793030826233623e-01  2.9567703644670901e-02  4.2514121403197144e-02  2.7291557050642047e-02  9.4733429407249783e-02  4.3455005637416610e-02  5.3007303985793536e-02  4.2132919927714355e-02  7.9690714479090125e-02  7.6426033059682019e-01  6.4061873907601971e-02  7.7877396574042423e-01  5.1496333277066042e-02  5.1639298207761600e-02  4.3467420138861596e-02  4.8286271469231194e-02  3.3875683773896680e-02  5.1701353562192472e-02  7.8557646850385121e-01  7.7823420502589247e-01  7.8638513513825714e-01  4.5132644205238909e-02  5.2058735989788808e-02  5.0524905084147011e-02  5.0325944295818027e-02  5.4155031884590872e-02  4.4977433892858770e-02  2.8228429060402849e-02  3.9292250420618922e-02  4.4628205524645470e-02  4.0212734692066557e-02  4.1354833904330493e-02  3.7699486034956063e-02  8.2818377178280234e-01  4.8522303680022444e-02  7.5924533456894067e-02  4.5711522513061112e-02  4.1719980154204653e-02  4.8235121140165836e-02  3.7426230124722827e-02  3.7437513115363419e-02  3.8205707787906419e-02  4.9503550235306733e-02  4.7440022507812478e-02  3.7572619957336920e-02  5.2515686696417978e-02  3.1464855129110111e-02  4.8342267630759952e-02  2.7633928294404302e-02  5.1090328630934531e-02  6.1902199661675976e-02  1.3262412237927024e-01  4.0598172739865213e-02  7.6855393582761422e-01  2.8468872173879341e-02  6.5151020403564450e-02  6.5002159836661258e-02  4.7297253989020176e-02  4.2972479328923840e-02  5.1587349201640466e-02  3.2852121154426428e-02  5.3029453891546258e-02  4.3232438387890690e-02  5.5308120423207867e-02  -4.0748127210212121e-05  2.4917096539384603e-02  4.9751451821187370e-02  1.3550005680338156e-01  6.3207390427527418e-02  7.7932425438052022e-01  7.7484330967144244e-01  3.5587173897282706e-02  4.6801993033905386e-02  4.8708948107630573e-02  4.5399754087459623e-02  5.7066264013590842e-02  5.7840625311734298e-02  5.9679933186804028e-02  2.9899301812094940e-02  2.9544048440117914e-02  6.7929615788687514e-01  6.8339397119272738e-01  5.5247771946149028e-02  5.8633525008578172e-02  3.6975186919499387e-02  7.7670290241814566e-01  9.3111928869745925e-02  2.7459735950469483e-02  4.8568818293679525e-02  4.5814543150359897e-02  4.5074215032806828e-02  5.8530484118138618e-02  4.8580565511162889e-02  3.1544397361541014e-02  3.5251427455401295e-02  3.7453140548070959e-02  8.0087750615543807e-01  8.0568108639522362e-01  7.9511303514384757e-01  5.1741095086069014e-02  6.4721376601844710e-02  6.4319208003953618e-02  6.4464710357818047e-02  1.1362046672421636e-01  4.5775270870570789e-02  5.1466458717186289e-02  5.9510239768657665e-02  5.6496373883630754e-02  3.6118025686407637e-02  6.4832529661771554e-01  4.9822209276918564e-02  5.4668082601672718e-02  4.5354210937162596e-02  5.0374832742390532e-02  3.3186128326890378e-02  2.9230875534733393e-02  4.4705181086361130e-02  4.5530822481767270e-02  5.5202684324203506e-02  5.7442364239927601e-02  5.9983699334417523e-02  3.9806739090597509e-02  7.6616870311610796e-02  3.9158078382641993e-02  2.5009605332016450e-02  4.0348295315543486e-02  7.7395564936234640e-01  4.8132385808241682e-02  5.0440749986709575e-02  9.9089693774732923e-02  3.4184187358476892e-02  3.6928572113837529e-02  6.6674314296498519e-02  3.9484455025817017e-02  3.9340238535597434e-02  8.7892650858487020e-02  1.4027302229076807e-01  4.3043876614324184e-02  2.8036081678215290e-02  6.4194591438789986e-02  6.2282290748451978e-02  6.1123845936906319e-02  5.2211860022693915e-02  5.5790839854033214e-02  5.3557976445180844e-02  1.3453792287766900e-01  3.6625357651331056e-02  3.3035945872127527e-02  3.3495075836975578e-02  7.8924369584642418e-01  3.9865130507285497e-02  5.0159674199606319e-02  4.5562043919237842e-02  6.3699023439786437e-02  6.3394390896262670e-02  6.1146550288187974e-02  6.2405921093546042e-02  7.6093009152917201e-01  4.6654990051251496e-02  3.5524766280841509e-02  5.3482006263138794e-02  5.3502228659498954e-02  7.6625684501958646e-01  1.3896090317814721e-02  3.5306918871599612e-02  5.2700764690937686e-02  4.2105408169713213e-02  4.3316349780074398e-02  5.9117788418514353e-02  7.1750044917606881e-01  5.3614822782425672e-02  5.5371620990049664e-02  5.0606477520373928e-02  3.8459660768158016e-02  3.7408518619449868e-02  3.7431549889644380e-02  1.1399688645952617e-01  5.1832060110954523e-02  6.2111220460763193e-02  6.2871503205047086e-02  6.1514484073348093e-02  4.1844327811040853e-02  4.3934378039670034e-02  4.6335865126943217e-02  4.6900774971040352e-02  1.0399891846577242e-01  6.0996040996935570e-02  5.4563259260111283e-02  3.7922211789002472e-02  5.1943138171963013e-02  4.9688987039407481e-02  3.1974789967098440e-02  3.2356824095172008e-02  8.0075182953615587e-01  7.9449893836701146e-01  4.6026594647303229e-02  4.9547960874777690e-02  3.9496429061388325e-02  6.4142284889741796e-01  4.3179967794476366e-02  5.9938312492268900e-02  1.5380490209574793e-01  8.4846670872335728e-01  3.3613834878833404e-02  4.1444721114449447e-02  4.1375131614246573e-02  4.8791327859741829e-02  5.2023319209207518e-02  5.0094473328993312e-02  3.7725320335917606e-02  4.0728330431827789e-02  5.3173537178035496e-02  5.8300180359399663e-02  1.5341687520426392e-01  6.3818554263183269e-01  5.3845425980465621e-02  7.6770303280868457e-01  3.8926178727624113e-02  3.5451388973967594e-02  5.3434976425654028e-02  5.5886330909617955e-02  7.9508100711628737e-01  7.9294046915024141e-01  3.5695010086420370e-02  3.8977763860230927e-02  4.1639620552114898e-02  4.5423717883577769e-02  3.1396656131549412e-02  7.6106579413725917e-01  4.0283893859410828e-02  3.9900562778757469e-02  5.4838095914226170e-02  1.0822398320290613e-01  3.3004324120998699e-02  3.1625868507380098e-02  4.0148364331001760e-02  4.9018594540406170e-02  3.7179397504499619e-02  3.6692299639939488e-02  5.2050937053349747e-02  3.647