<?xml version="1.0"?>
<VTKFile type="UnstructuredGrid"  version="0.1"  >
<UnstructuredGrid>
<Piece  NumberOfPoints="1025" NumberOfCells="1947">
<Points>
<DataArray  type="Float64"  NumberOfComponents="3"  format="ascii">-0.9978354042878017 0.1029614215678016 0  -0.9944169459127968 -0.003958956324954647 0  -0.978846797997681 -0.109845455492333 0  -0.9513670846819459 -0.2133255601833375 0  -0.9124020499904777 -0.3131061273818113 0  -0.8625407612197881 -0.4079335745834785 0  -0.802440651288461 -0.4964631804290629 0  -0.7329131094697459 -0.5773679165444906 0  -0.6554466125035486 -0.6497756887062189 0  -0.5708789407575806 -0.7127593214790275 0  -0.4803714146101222 -0.7663579930702472 0  -0.3850527325885072 -0.8103822026135803 0  -0.2856696847478794 -0.8445682736439803 0  -0.1835437756513802 -0.8686552286401458 0  -0.07946468908822607 -0.88230006675734 0  0.02541500713059327 -0.8855791611971131 0  0.1299948965694794 -0.8768505808291248 0  0.2332474017618522 -0.8580361807182804 0  0.3342094423621047 -0.8287401543219736 0  0.431552247582639 -0.7895787949504085 0  0.5246161675996166 -0.7406016926742612 0  0.6121593025128931 -0.6822549043410014 0  0.6933327730980596 -0.6145183603510376 0  0.7670459985628024 -0.5378035411329471 0  0.8320439644021167 -0.4529955005512834 0  0.8873575660538024 -0.3613769742370902 0  0.9319892596611373 -0.2641015455957593 0  0.9653641434653049 -0.1623781472022671 0  0.9871119107606982 -0.05761136880990856 0  0.9968417918406312 0.04893148892819878 0  0.9943280606013465 0.1558112750945818 0  0.9798612728181968 0.2617437212203988 0  0.9534214101210787 0.365278825133649 0  0.9155672332619987 0.4652438071039263 0  0.866944620363684 0.5604176515574871 0  0.8082607702580588 0.649701105888624 0  0.7400123463718211 0.7320308750323045 0  0.6632190572509299 0.8063475554071328 0  0.5787928161376357 0.872022100397924 0  0.487829559260901 0.9283371126844209 0  0.3914170273574716 0.9747875720548308 0  0.2906882127794745 1.010777246538671 0  0.1866521360108844 1.035942490162269 0  0.08045176448044609 1.050206619998875 0  -0.0266174407771235 1.052722519923602 0  -0.1333542263105779 1.044103710169886 0  -0.2386293610418404 1.024401309971651 0  -0.3410630473874679 0.9937088691318871 0  -0.439810987179146 0.9525877288677106 0  -0.5336673287963717 0.9013327948419596 0  -0.6214802419924916 0.8403400644387033 0  -0.7022229166962645 0.7702197953583946 0  -0.7749822654867587 0.6919459296552879 0  -0.8387331044466751 0.6061487112723908 0  -0.8927940767127388 0.5139426675309193 0  -0.9361907179005059 0.4162871107872164 0  -0.9685339292574755 0.3144041648011824 0  -0.9892365841248225 0.2095471616658732 0  2.206932466084181 0 0  2.198048004803364 0.1978279010563361 0  2.171466153419167 0.3940630081742888 0  2.127400933369061 0.5871253516557187 0  2.066207131894959 0.7754605070297328 0  1.988377445504958 0.9575521103645378 0  1.894538513070756 1.131934067138211 0  1.785445870499915 1.29720235636974 0  1.661977867604978 1.452026334970414 0  1.525128596147248 1.595159451299565 0  1.375999885994432 1.72544928166542 0  1.21579243383442 1.841846808963053 0  1.045796135871547 1.943414868743301 0  0.867379702340807 2.029335694709867 0  0.6819796374578242 2.098917502892693 0  0.4910886735315642 2.151600061485734 0  0.2962437523614919 2.18695920150404 0  0.09901365068591043 2.204710231943022 0  -0.09901365068591016 2.204710231943022 0  -0.2962437523614916 2.18695920150404 0  -0.4910886735315639 2.151600061485734 0  -0.681979637457824 2.098917502892693 0  -0.8673797023408062 2.029335694709867 0  -1.045796135871547 1.943414868743301 0  -1.215792433834419 1.841846808963053 0  -1.375999885994432 1.72544928166542 0  -1.525128596147248 1.595159451299565 0  -1.661977867604978 1.452026334970414 0  -1.785445870499914 1.29720235636974 0  -1.894538513070756 1.131934067138211 0  -1.988377445504958 0.9575521103645381 0  -2.066207131894959 0.775460507029733 0  -2.127400933369061 0.5871253516557189 0  -2.171466153419167 0.394063008174289 0  -2.198048004803364 0.1978279010563364 0  -2.206932466084181 2.702712780524366e-16 0  -2.198048004803364 -0.1978279010563359 0  -2.171466153419167 -0.3940630081742885 0  -2.127400933369061 -0.5871253516557184 0  -2.066207131894959 -0.7754605070297326 0  -1.988377445504958 -0.9575521103645376 0  -1.894538513070757 -1.13193406713821 0  -1.785445870499915 -1.29720235636974 0  -1.661977867604979 -1.452026334970414 0  -1.525128596147249 -1.595159451299564 0  -1.375999885994432 -1.72544928166542 0  -1.21579243383442 -1.841846808963053 0  -1.045796135871548 -1.943414868743301 0  -0.8673797023408072 -2.029335694709867 0  -0.6819796374578244 -2.098917502892693 0  -0.4910886735315644 -2.151600061485734 0  -0.2962437523614921 -2.18695920150404 0  -0.0990136506859107 -2.204710231943022 0  0.09901365068590991 -2.204710231943022 0  0.2962437523614914 -2.18695920150404 0  0.4910886735315637 -2.151600061485734 0  0.6819796374578236 -2.098917502892693 0  0.8673797023408064 -2.029335694709867 0  1.045796135871547 -1.943414868743302 0  1.215792433834419 -1.841846808963053 0  1.375999885994432 -1.72544928166542 0  1.525128596147247 -1.595159451299565 0  1.661977867604978 -1.452026334970414 0  1.785445870499914 -1.297202356369741 0  1.894538513070756 -1.131934067138211 0  1.988377445504958 -0.9575521103645384 0  2.066207131894959 -0.7754605070297332 0  2.127400933369061 -0.5871253516557191 0  2.171466153419167 -0.3940630081742893 0  2.198048004803363 -0.1978279010563367 0  0.0002021948566419407 0.08375710414014437 0  0.1327900620544055 -1.541207045230734 0  -0.5495642208253688 -1.450189330833163 0  0.782351916837252 -1.343245023108473 0  -1.132955469846049 -1.083216341674144 0  1.315006076707681 -0.8680279112938734 0  -1.510712374549025 -0.4908602058337608 0  1.576783340001342 -0.2346575558457072 0  -1.593651806977702 0.2046687225363319 0  1.543325537117944 0.4607796910975265 0  -1.372545253537104 0.8571749047371034 0  1.270514416461755 1.013201437319705 0  0.6913714255021407 1.474090540274675 0  -0.95757378860637 1.317987250154892 0  -0.2926532089775234 1.604172659570053 0  -0.4949466082391181 0.0153979678051101 0  0.4993730855682456 0.09070085711709487 0  0.1984579657156287 1.532314779363827 0  -0.2998164149636916 0.4709414962940626 0  0.2518218269143613 -0.3351574156219538 0  0.2439612010619382 0.506078676187937 0  -0.2398796159216313 -0.3708603706375299 0  1.214143938476745 -1.29110030535077 0  0.5345563250725281 -1.694833766019679 0  -0.3238415543333477 -1.784514049069271 0  -0.9326561289023976 -1.561003424982462 0  -1.520397812412837 -1.003605808992668 0  1.81776657381081 0.08163599096159142 0  1.668630124694163 -0.6434011433555005 0  -1.812232954002164 -0.2454836332006256 0  -1.694182149335417 0.6024490616157215 0  1.106506655699832 1.401426583769686 0  0.8457125674420929 1.133671291658486 0  -0.18380885503775 -1.27444297829145 0  -0.006823496453848041 1.843496383039817 0  0.9161586655757106 -0.9570990851826197 0  0.393046469588146 -1.230505289208512 0  -0.7294690501866823 -1.083772498267881 0  -0.7053037986406365 1.64739336883059 0  -0.5328592006543993 1.315159660994544 0  1.620665984049682 0.8721175549889689 0  -1.331145368045289 1.272705286472058 0  -1.157996598391111 -0.6731746228410773 0  0.4775198603162304 1.779230733250975 0  1.264881583975385 -0.4765284958767841 0  -1.470366759108909 -0.1333395447536605 0  1.455087689013411 0.108011069468541 0  -1.336510212604452 0.4812492763105857 0  -1.731023608723631 -0.743162944397298 0  0.1688117425210405 -1.875652078672596 0  -0.6570576050288384 -1.766126374213915 0  0.9677633649554498 -1.61976304068882 0  1.23077611537345 0.6500026703424873 0  -0.9933678504455816 0.9678995087595357 0  -1.889573040853551 0.07021507122428408 0  -1.378374027800724 -1.295007892008932 0  -0.04190786351947456 0.7048663963165321 0  -0.6078443142731478 0.3333206063224519 0  0.5737496649967868 -0.23741408594574 0  1.501483641277246 -1.136044067058718 0  1.854150979436235 0.3968707896496754 0  0.5648274895598495 0.4257708486505627 0  -1.223433279178107 -0.367422977075846 0  1.889771781133375 -0.2559869809938833 0  1.275376123718271 -0.1680215576818994 0  0.421241250180856 1.302788535503612 0  -0.07630152319389971 1.368650266931972 0  -1.291227582343412 0.1802706040059738 0  -1.568992734156074 1.086574803576146 0  1.268347897215721 0.3421399614442237 0  -0.580788883773926 -0.2813255146205968 0  0.02114976315468352 -0.5620495136512862 0  1.036986530473907 -0.6779674864638245 0  -0.9309112191378365 -0.8650920713937817 0  0.6207543796509813 -1.029039940918665 0  -1.128890603017817 0.6908409516669839 0  0.9372909746203789 1.656866352506642 0  1.002714397125565 0.8780875940815827 0  1.396235431488379 1.295068488228155 0  -1.171244125626308 1.517141040021824 0  -0.2935328867008439 1.895571571504416 0  0.09877625134232129 -1.175767562019669 0  -0.4311052502083981 -1.106035467024987 0  -0.7465282982977079 1.119535582515203 0  -1.840007518979418 0.3540012662575798 0  -0.02074517496021988 0.3773558684881267 0  1.695849958148497 -0.927313062736066 0  1.810120140642856 0.6702168380604988 0  -0.1516493157972123 -1.557529439019338 0  -1.204014062803326 -1.509273434713181 0  -0.7889146689988453 -1.340332969733884 0  -0.004827633220707783 -0.2042885587575003 0  -0.232763050153447 -0.0562416238610019 0  -0.2350091456520758 0.2113285700633476 0  -1.420678722980643 -0.7490251616229497 0  -0.7378656927228541 0.1081417271114437 0  0.7400387521897738 0.1750380196818609 0  0.211014192726415 0.7636414139291565 0  -1.762986755304381 -0.4929131986914744 0  -0.3693020585954819 0.7119133258162488 0  -0.07142987497814129 -1.797189983329319 0  0.271223844960516 -0.5855862168493717 0  -1.732054354047967 0.8704915343933063 0  0.2479088368595059 0.2222919568420711 0  0.2412325333176884 -0.05649332691971831 0  0.1660135240833426 1.284759904380801 0  0.4511345139786769 0.6526729898846027 0  -1.22601635945954 -0.09210265080326979 0  0.2307804728363665 1.776938642766718 0  0.543855903678139 -1.438271925076446 0  -0.9319571271780358 1.559
[...]
<PointData  Scalars="f_2401-1"> 
<DataArray  type="Float64"  Name="f_2401-1"  format="ascii">3.4536540865233728e-01  3.5576539608066338e-01  3.4958975673741693e-01  3.5212350672964343e-01  3.3974557243285197e-01  3.4053943326404440e-01  3.6271088364267040e-01  3.7411251559257092e-01  4.3548045895637028e-01  4.5982083291459402e-01  4.7108733621554849e-01  4.7011098111561256e-01  4.5509525926269767e-01  4.4953381325244796e-01  4.3988942579570417e-01  4.6541092164852327e-01  4.6725921826267558e-01  4.6070485718764198e-01  4.7349541408948204e-01  4.6105956008911397e-01  4.4133689966888828e-01  4.5952789195265031e-01  4.3031984981949162e-01  3.5981089926862281e-01  3.3609011926374704e-01  3.3336154383228578e-01  3.3210254067176903e-01  3.5179434290518552e-01  3.4423275706278367e-01  3.5833406893755348e-01  3.7006677117859738e-01  3.5577248614907364e-01  3.5950032029201873e-01  3.6561633491509593e-01  3.7739237644083695e-01  3.6801521540383192e-01  3.6990912979889451e-01  3.8353508063440489e-01  3.9002132256205391e-01  3.9062740327729334e-01  3.7673259701868050e-01  3.8545205295962481e-01  4.0664886457076727e-01  3.7986223354081994e-01  4.0154118180195975e-01  3.7112320265078369e-01  4.0064440023522641e-01  3.8930413845937073e-01  3.8480951491754700e-01  3.8990496672567282e-01  3.7871242378404529e-01  3.8142198243086456e-01  3.7762188890027570e-01  3.7056915242558996e-01  3.5453764660602477e-01  3.7847014842152699e-01  3.4078459322012400e-01  3.4960248421924334e-01  -2.7908191145421448e-02  -2.8497463109137228e-02  -2.0359160661993496e-02  -1.0345748786351477e-02  -4.5098182226791986e-04  -1.0026447771679527e-02  -7.8415283751880283e-02  -7.2005520196340420e-02  3.0734911434619938e-03  2.0625858378404537e-02  2.4061442444343436e-02  1.8221047089481843e-02  1.9277533432789592e-02  1.6038248571128819e-02  1.7712393882092319e-02  1.3648793552827851e-02  -4.9154117821674871e-02  -3.8597610579181249e-02  3.2416595778726250e-02  2.9454554936488051e-02  1.0240261249851879e-02  2.4288332298144005e-02  2.1670604676148959e-02  -5.2328239713662919e-02  1.4689109508066674e-02  2.4503992903333431e-02  1.2617079676299924e-02  1.2131782638675126e-02  5.6097142007514936e-03  1.3407843993417445e-02  -2.5930775637100531e-03  -1.4752518296084703e-02  -2.0100286762412167e-02  -2.5071972785995850e-02  -9.3544817769356275e-02  -3.5635596590369634e-02  -3.5085786006660243e-02  -3.1166907315481211e-02  -1.1093639346814023e-01  -2.9064016078972167e-02  -2.7566558108353116e-02  -2.7249261764979053e-02  -1.1597004543946790e-02  -1.4702945442019805e-02  -3.5271677018455870e-02  -2.3316761495193968e-03  5.7544898610896629e-03  -7.3625639707614640e-02  8.2177417216654069e-03  1.2266415638575910e-02  1.5305672696185197e-02  2.3409068567815376e-02  1.8432959387017941e-02  1.7069015445757757e-02  2.0277084634147402e-02  1.7398117382001928e-02  2.6315153335966849e-02  1.8740325017210006e-02  1.9148127325301943e-02  1.5563170948268397e-02  7.4133856268645288e-03  -5.1531315163801097e-03  -1.0688261875559558e-02  -8.3485071015386384e-03  -1.3201331582037758e-02  -2.3153032872239923e-02  -9.7599910840393073e-02  -1.0276779827506621e-01  -3.2369423670282609e-02  -1.9876991741920716e-02  8.3109623569720303e-01  7.6400995093633670e-02  7.1768857938395172e-02  6.7155068058429634e-02  4.9482395048127216e-02  3.9076317196804308e-02  2.8912623070754061e-02  2.8571678898866765e-02  3.5138238392152014e-02  4.1236516370129414e-02  5.4803632081244724e-02  5.8658422187987232e-02  7.6654258460200575e-02  7.1416099851263973e-02  8.2590882253616368e-02  8.1898897275349314e-01  8.1377874926831595e-01  8.2900701065957108e-02  8.0250176287892505e-01  8.7400099577038537e-01  8.0283281108683913e-01  8.7949657771962242e-01  5.2713151871798966e-02  7.1881613683297138e-02  7.2785700173819204e-02  6.2239847147716978e-02  3.6847887187994817e-02  3.1031136567684241e-02  2.9758822076818448e-02  2.7460010759756997e-02  4.2928103970942121e-02  6.7633005459246304e-02  6.7716635797808622e-02  7.5033039639520932e-02  8.1488997577768396e-02  5.4984545588018130e-02  7.3876314388318209e-02  6.3873163333593622e-02  7.6878553054518545e-02  7.5164748053776473e-02  4.8409017479750224e-02  6.2083573881891854e-02  2.7230803921665731e-02  7.8870885429796644e-02  2.3055903725845664e-02  2.8163180908370587e-02  3.2006036633288798e-02  4.2874377476667912e-02  2.8305107513575546e-02  7.2681036781311548e-02  6.7697377535644809e-02  6.1772204035351948e-02  4.8082288020580115e-02  6.5358805414351351e-02  2.9086216026776360e-02  4.4961075064998197e-02  7.9579797369551253e-01  7.9841903950698334e-01  8.2154799383673716e-01  4.0023342423329590e-02  3.4838642678101960e-02  7.8963447241093387e-01  1.7287293621894562e-02  2.5501445088106308e-02  2.4444846608092628e-02  7.8936868355403783e-02  8.6763368452718190e-02  3.2168522078507518e-02  5.2959493528244625e-02  3.9275257049183700e-02  8.2290792833792437e-01  9.1077722906051228e-01  3.3040076839204652e-02  4.7062547537119269e-02  7.3500497133556345e-02  5.9731495787685940e-02  7.0716054720739357e-02  5.6475100259053349e-02  5.8642337040512568e-02  6.6555858329607948e-02  7.9097300546056917e-02  8.0675910854261013e-02  7.5630397628928731e-02  7.6857518013625545e-02  3.4748615040929791e-02  8.1119673925100866e-01  3.0567807785638335e-02  3.9560804439482969e-02  7.5844384496665168e-02  5.2502995795888269e-02  6.5951810858512913e-02  8.6112471507647792e-01  8.3995883053740572e-01  8.1835066776414811e-01  3.3497217328069560e-02  7.8430866921852560e-01  7.7825005096419531e-01  7.8156949146291055e-01  2.7182652601094811e-02  7.7512977641143788e-01  7.4308005876454017e-02  8.9113953432193493e-01  4.5280072107256708e-02  8.1741256167417653e-01  8.3978966932974297e-01  9.2008474935413156e-02  7.8019748240041864e-01  2.8940565184745443e-02  8.1579551457092378e-02  7.2780156543695060e-02  7.2712623641032564e-02  7.5845718233459439e-02  8.3724598987435714e-02  8.0441824368080575e-02  5.4324874735765825e-02  8.8139028805629482e-01  4.3802591887944317e-02  7.5821398508974888e-02  6.4601002938447824e-02  3.6054377692619377e-02  3.1320664737338334e-02  5.3030941464240755e-02  4.0337483232987685e-02  2.2749257482063211e-02  8.6854142474437357e-01  9.9266162580427864e-02  6.9232447534466404e-02  8.8315850183871814e-01  9.7508063318165611e-02  6.5768040315241499e-02  6.3789841824235041e-02  7.0736575862289472e-02  6.8860848039284703e-02  5.2238555335924565e-02  5.7773455324751241e-02  4.9624964693278505e-02  5.9697965108403396e-02  7.7098343425255636e-02  7.6975939577069941e-01  6.8496541262368510e-02  2.8099516360576712e-02  2.8272404044686117e-02  3.1798670495615557e-02  7.8004186889162519e-01  6.3361702371470693e-02  4.0582884247664722e-02  3.5874967112457100e-02  6.1403837506096626e-02  7.4707215480170522e-02  5.7461616735938775e-02  7.4554752451451808e-02  7.5609300397427956e-02  2.8272423388422851e-02  7.2023425907197847e-02  2.1638116832620971e-02  7.7477099671305139e-01  6.5921427942376432e-02  4.5407634126062253e-02  5.9205654400713313e-02  8.0105194964655582e-02  8.4211659633543279e-01  2.2188648326762220e-02  7.5321825230465531e-02  7.4545564980356610e-02  4.7913764721689907e-02  4.0620402576089523e-02  8.5228698537938477e-02  2.2354885521021519e-02  6.9840982361253509e-02  2.2474249976733866e-02  3.5257990400127295e-02  1.0841212063378751e-01  1.0327209511312745e-01  5.9048332040966239e-02  7.1063942483296574e-02  5.8130565963940672e-02  1.0169887441049176e-01  7.2290533633637230e-02  6.7278796792735018e-02  6.8122829987449451e-02  5.5029264027728758e-02  3.4970823196442194e-02  2.9659511022732465e-02  2.7760395440640101e-02  6.9710864315289139e-02  4.2680267295905856e-02  2.7135503711199667e-02  4.5484621943728265e-02  3.9998185717144606e-02  5.8192418959987668e-02  3.2185399777007108e-02  8.1122726388812960e-01  6.1397901817487832e-02  2.4218527004054038e-02  6.3024335086217853e-02  6.9096510707986489e-02  4.2459574970548870e-02  2.8826288805959246e-02  7.1574754524135975e-02  2.5547764288765099e-02  4.1804603210393559e-02  3.0521757904937104e-02  6.6839312695273240e-02  8.3121441048827094e-01  4.0913342954485496e-02  5.2796060662363795e-02  8.0813401810321606e-01  5.9921542625464751e-02  8.1563903022280962e-02  8.2375339791489449e-02  7.6030352799467860e-01  8.7797840141826899e-02  7.9508112597095920e-02  1.0181631054516205e-01  7.7929744621968736e-02  7.4611387350808467e-02  7.5633311211640533e-02  6.4136206803665718e-02  2.1664145998250867e-02  9.7945825204987402e-02  4.5973186868676033e-02  7.5451502870696585e-01  3.1065992255422687e-02  5.5079922186801536e-02  4.4378282389027059e-02  2.7354907889724923e-02  3.2809188823801544e-02  3.6554320968877320e-02  4.3191040767635955e-02  6.7678426673195194e-02  7.4219769738816799e-01  2.8627196895431081e-02  2.0822908044345976e-02  3.6613741567222656e-02  5.0460684766790685e-02  8.8480948733576603e-01  7.5008781644786038e-01  7.7922912789166676e-01  2.5044034600188763e-02  3.5429762493545534e-02  7.1645532552439634e-02  8.7252171632985848e-02  7.3680970916770161e-01  7.4970187123589416e-01  1.1638602102723729e-01  6.8653689985353150e-02  7.1318376767437672e-02  5.0980175203735927e-02  9.2253674291932736e-02  7.9609777072047705e-01  7.9859300588102178e-01  3.7681507473446327e-02  5.2349958984101726e-02  7.6554119766945886e-02  3.0010092231336952e-02  7.4581584540580850e-02  1.3254186847653973e-01  7.4534284769719475e-02  4.0535928576890604e-02  5.1095724663425462e-02  7.9924762475186317e-01  6.1930310585960859e-02  8.5866374678797752e-01  6.7173679224319952e-02  7.5454775358662449e-02  8.9881386678386155e-01  7.3606239705397758e-01  3.2435098426815384e-02  2.1687395728309786e-02  2.9582206794260792e-02  3.0315714742119880e-02  6.4450776894179163e-02  4.2618717946018639e-02  7.0721104931106546e-02  7.4247612130674920e-02  8.7798679111448608e-01  2.9001365996320597e-02  5.7254664154169577e-02  5.3297923645430831e-02  7.7601720992713941e-01  6.5557740726164715e-02  7.4370624511216399e-02  8.0188443004878651e-01  8.3052777476468193e-02  1.4397216838043314e-01  1.3026644375219626e-01  4.4317440885880660e-02  8.0292694827722355e-01  3.3277208531936650e-02  6.3437641076574680e-02  7.6116737991183792e-02  5.4870326211021524e-02  4.6374019662392137e-02  8.2373316708906774e-01  7.4863575060785156e-02  3.3124425200636916e-02  2.1771971465677963e-02  2.8569843154929074e-02  4.5863462685819381e-02  8.9020951761847589e-01  7.4128656048336725e-02  7.2702752903616985e-01  8.0198058453323762e-01  8.1677394354773974e-02  7.8279122295521641e-02  8.2677087839300792e-02  8.3723950420614437e-02  6.8115997128556732e-02  3.3186761092687714e-02  7.8808943718774255e-02  7.5698405839394300e-02  1.9435999682820563e-02  1.1074870371946111e-01  2.2727311301216656e-02  7.0490900503006715e-02  8.0318565116293328e-01  8.5695179588945758e-01  1.9996441371977491e-02  8.1838796847174072e-02  7.2551475930643072e-01  8.1490581001988094e-01  8.1934148622709602e-01  8.1080135796909025e-01  8.1958281792092202e-01  4.2403995094596074e-02  5.9783067219951386e-02  1.2923132883048724e-01  8.2240182066625955e-01  1.9212791716600328e-02  9.2357874575118612e-02  3.8853754270124212e-02  6.3007487648356758e-02  7.9658976628443443e-02  2.8403615470629241e-02  7.3846540305386815e-02  6.9199780574005290e-02  7.4903589077996699e-02  3.4935666678395150e-02  1.5848272838204308e-01  8.5773683560699110e-01  3.8739306865001391e-02  9.8900635096605766e-02  7.7538782288161912e-02  1.0028414923549238e-01  4.1329178225771999e-02  3.0724177593681422e-02  5.8925838206345470e-02  8.3277090946668894e-02  9.0027061190971602e-01  5.6775326910332304e-02  5.7835134762281880e-02  5.4874460565907147e-02  7.0575415738517194e-02  8.5155475069821984e-01  8.5812327906677088e-01  8.4356980150220673e-01  8.2930953895449400e-01  8.4350344348682382e-01  8.2984501460048377e-01  1.2688663709485948e-01  1.4422622394403425e-01  2.7789352078527230e-02  9.2118277454082076e-02  3.3359946122011867e-02  6.9505421059618169e-02  6.5425486354933018e-02  1.5133799778708282e-01  8.0607131466299720e-01  7.9808217942846538e-01  6.9962869890166784e-02  6.5333339603725019e-02  7.8903972415793344e-01  4.9795388560583555e-02  5.5764156373676439e-02  8.2622590412499497e-01  8.1944067970986967e-01  2.3399325591185943e-02  6.7221809635948135e-02  3.2191669708657417e-02  8.1435131266569749e-01  1.0086002311338559e-01  3.7540399929997519e-02  3.2234590125446008e-02  8.1047385574104847e-01  2.3914506622751370e-02  6.2711524568871538e-02  8.0895987090049615e-01  3.9262373028461819e-02  1.4701615684684305e-01  6.5099314617730497e-02  3.0461126125025387e-02  2.9593973762404406e-02  7.9710889793320180e-02  9.6097160791388123e-02  1.9864146921968296e-02  1.2945765497398010e-01  7.4243641172448457e-02  4.1299287786210989e-02  3.9124653670928621e-02  7.3287480627596893e-02  2.4917104932631981e-02  7.1280208560658087e-01  4.9627533402491014e-02  3.8520361985555508e-02  3.1245993440145638e-02  7.5274400174021261e-02  6.4361485689213752e-02  5.5139603545527348e-02  1.2512014288846682e-01  4.9311866251815009e-02  5.9324790200362812e-02  6.9140897562004278e-01  7.1024864447510316e-01  3.1952718021529387e-02  7.1865525110672249e-02  4.5603559820345724e-02  7.7848192525486165e-02  7.0506170079978725e-01  5.2250576348962734e-02  5.7562786802675847e-02  6.2271327523797992e-02  5.9945589423741945e-02  3.6674846580389685e-02  3.3728787605165927e-02  4.4197520732866688e-02  7.8789356147643055e-02  2.7020265489862610e-02  4.9561538216181214e-02  5.7700701233177006e-02  8.0562807860678209e-01  5.0595837389221805e-02  3.5799162305274197e-02  3.0488400429442526e-02  6.5795136692350642e-01  8.9016573795258991e-01  6.4251567215513128e-01  4.0623578044486575e-02  9.1811632122511075e-02  7.4677717040352296e-02  4.7558830705891654e-02  7.3169170399939490e-02  3.1997073615838159e-02  5.7571187943467467e-02  4.6178843391685820e-02  6.7570028817003552e-02  4.7590189544836257e-02  3.8834117822672362e-02  7.6149075956752507e-02  6.3967519456958638e-02  3.5609377792636537e-02  2.3179648296823951e-02  2.7085343498614474e-02  3.2124917213944906e-02  1.5843585187991754e-01  6.9510553311702111e-02  7.7761590746133313e-02  8.6981844436709221e-01  6.0576226938036493e-02  4.9600036244906207e-02  3.8587332072980880e-02  6.9282505087725529e-02  6.4607959398239712e-02  7.0037895195961528e-02  7.9291403544196348e-01  7.3499427322527497e-02  2.6911291737768440e-02  8.0928801943078277e-01  5.5012259431927009e-02  6.5588532270027713e-02  6.8990369677927973e-02  6.3735022143354220e-02  2.5385327000475032e-02  7.3667121632991300e-02  6.6099268270694622e-01  6.1133950528400892e-02  6.7619485802082735e-01  7.6329868644234300e-02  3.0020026148955156e-02  2.5190814506558804e-02  7.7969891703796690e-01  7.3071099476270149e-02  3.1782867899638398e-02  5.8672559447018838e-02  7.3447866015687924e-02  8.3117329855673394e-01  1.8568038555915375e-01  3.4759409619786158e-02  6.8887929312527546e-02  6.5293887093166914e-02  1.7918552084730388e-01  8.0281049739286930e-02  7.2810341975968265e-02  7.0445074018180356e-02  7.2550159160840164e-02  8.7766471377454552e-02  4.8544420053382172e-02  2.5486408737204123e-02  5.9856705688975734e-02  2.1056586382720968e-02  2.4968818934126353e-02  6.6132952351976770e-01  5.7185068215519864e-02  8.1639395568214779e-01  5.6442889835453793e-02  5.9436700807690403e-02  7.5814353543706609e-02  6.0201222276545396e-02  7.9258820258281115e-01  4.9911886166997106e-02  7.0885469865246437e-02  7.2788375703379191e-02  7.2864063718970695e-02  2.6653955202645213e-02  2.8887265965577787e-02  2.6189678477581618e-02  5.4750655366492568e-02  5.4114634410105132e-02  7.1318964247267344e-02  5.6531875351133680e-02  7.9100992197076625e-01  1.0290541769195787e-01  7.2719513627135712e-01  7.7332160338039013e-01  9.1101374214550879e-01  6.2278101222988803e-02  2.7773812932196409e-02  1.8453166849758229e-02  6.5744342535165187e-02  1.3801215985726686e-01  1.6976451109164245e-01  8.4181498788037393e-02  3.5738064461344636e-02  7.0664093070086295e-02  7.0271837162265913e-02  5.4410319711829455e-02  4.3788263107137751e-02  7.9505856053571550e-02  6.3507883992256722e-02  7.2595239046424329e-02  1.0285860541224927e-01  2.3775029753336681e-02  1.0725845722700827e-01  8.7570012834590838e-01  8.1569436332529152e-02  2.0801075289791408e-02  8.4658659745229736e-01  -7.5961578228650843e-03  6.4446511292530595e-02  8.1401919507943371e-02  7.1480988053618549e-02  4.4117826436262157e-02  5.0225116476859483e-02  8.0295694709952992e-01  4.3296053718584561e-02  8.8672145775018252e-02  2.4193582339717200e-02  6.2569669479678025e-01  6.9438703183219957e-02  7.1533981869703139e-02  1.6936140833893373e-01  6.3486411823091629e-02  1.3389027247188628e-01  7.0666959297158743e-02  7.5890163283757167e-02  6.4999137593715520e-02  7.0658894627516552e-02  6.4854717560491659e-01  8.1256866020275750e-02  7.8938076238233068e-01  1.0032250385668486e-01  4.7363526186026267e-02  2.3569499973185470e-02  5.3823592848917516e-02  7.9306095247093353e-02  8.3463422462745365e-02  8.3285338931863420e-02  8.3032245327417625e-02  8.2800568478076070e-02  8.0206923573780120e-02  8.1727794466189427e-02  8.0376238421313459e-02  1.8190815319962406e-01  8.5401700993507867e-01  7.3542531842515649e-02  8.8928461739079989e-01  7.7626541960585282e-01  7.6319885568971779e-01  3.5468480461284861e-02  3.5923392667641676e-02  4.0498556333116331e-02  6.8961193588274489e-02  7.4549537270435051e-01  8.0325394262499639e-01  7.2968622865417124e-02  5.3368547435726811e-02  6.1309222259006257e-01  4.1505693686868086e-02  5.6308304247515477e-02  7.8127084078567458e-02  2.8318908053230066e-02  8.8577113431344057e-01  3.3641994469716434e-02  7.5741637145827920e-02  1.9063365699831875e-01  3.4342409150760339e-02  2.6495360610023441e-02  3.0844649212718397e-02  3.2909165401335219e-02  3.0159554489033406e-02  7.9120798336026338e-02  6.8770846773799008e-02  6.4054602377581968e-02  5.1611056376708958e-02  5.5617514581086318e-02  5.0592303926123523e-02  6.4706217483907791e-01  2.3892790732840355e-02  2.9751947327661545e-02  1.2065223028876565e-01  2.8673679405756641e-02  4.3966051925225201e-02  2.4384503856364516e-02  7.4691982031108869e-02  1.7235666895831858e-01  8.9580811920119285e-01  2.3177364851134644e-02  2.6270609387749028e-02  3.2523434804157918e-02  6.3633511202926749e-02  7.8392984864085039e-02  8.1851349144700880e-02  1.8328426154087640e-02  1.7256242254743002e-02  7.3730315536620185e-03  7.9733913055332595e-01  4.8849592002493586e-02  -4.3161213491977782e-04  2.7995933403519892e-02  2.7906670416530874e-02  2.8967811312468967e-02  3.8848287629819830e-02  8.1393853219031753e-02  7.8953856388586013e-02  2.0639429563097203e-01  8.3609104749915231e-02  7.1222467175762055e-02  6.8175919583210329e-02  7.4124008902239316e-02  7.3594421068256019e-02  8.0317880105630479e-01  1.7779421445449065e-01  7.1294755152878891e-02  7.8861538649209598e-02  6.5715320359015145e-02  6.5348685520070074e-02  5.7627838454334709e-02  6.0607270746884385e-02  6.3151682168001178e-01  -5.5206118386447170e-03  3.5123042377865836e-02  4.8366899621198792e-02  7.5254730028259928e-02  6.3078472266498778e-02  3.0931879921087039e-02  1.2823235062402938e-01  6.8987114300454191e-02  7.4677219509991288e-02  5.6066118415040389e-02  7.2853244628033859e-02  3.4242014411512034e-02  6.3293757662155192e-01  7.9723988955189318e-01  6.6202962063905954e-02  5.4686725099169123e-02  6.5489711692066258e-02  8.4280353057649493e-01  5.0561119367575251e-03  2.4399946981071497e-02  6.6291736095499001e-02  5.1265243045048835e-02  6.8125285991167794e-02  5.1568297796867182e-02  3.7768335926106407e-02  3.4841903884047641e-02  3.4890815399722455e-02  2.3094736143588895e-02  1.6024879985445503e-01  7.3019975614329449e-02  3.6183683914377943e-02  6.0511325036947938e-01  3.1360492269974859e-02  4.4306279771799649e-02  3.9107702875476540e-02  3.6674878772405155e-02  1.5552925046304428e-01  6.9442796981058236e-02  3.7791797166763126e-03  7.3326553015524931e-01  4.8241280385277960e-02  5.2051137868945080e