<?xml version="1.0"?>
<VTKFile type="UnstructuredGrid"  version="0.1"  >
<UnstructuredGrid>
<Piece  NumberOfPoints="1500" NumberOfCells="2830">
<Points>
<DataArray  type="Float64"  NumberOfComponents="3"  format="ascii">-0.9926879412221292 0.3058348602065201 0  -0.9886389501321747 0.1956614921811136 0  -0.9720126255608679 0.08642381107358808 0  -0.9433238724677835 -0.02038126756792896 0  -0.9021983971522693 -0.1243801044900635 0  -0.8495529863624518 -0.2230794860006143 0  -0.786572688830632 -0.3142076705306898 0  -0.7134955435231292 -0.3981184211460342 0  -0.6337837167476049 -0.4714514642849679 0  -0.5500713621196617 -0.5335267099198812 0  -0.4638693238931496 -0.5847214938091287 0  -0.3755702816816932 -0.6260614807422735 0  -0.2840872833172928 -0.6584363060792773 0  -0.1910992504354267 -0.6814508081924959 0  -0.09697884842043177 -0.695464897144376 0  -0.007116581729275224 -0.7001165941533209 0  0.07906747235266157 -0.6964266401570132 0  0.1720508521935474 -0.6832988479245592 0  0.2667494334627594 -0.660523870840713 0  0.3587168567111093 -0.628689744905212 0  0.4470432539414772 -0.5881346411549128 0  0.5314127253171488 -0.538962461869876 0  0.6132966882518752 -0.4796365767993337 0  0.692439020679929 -0.4088235685000371 0  0.7650962802593476 -0.328287785549098 0  0.8295089483914244 -0.2389015992919664 0  0.8843458611153479 -0.1413887820887191 0  0.9277882415214426 -0.03808465888192299 0  0.9587208267094091 0.06785519665541047 0  0.9776288005335217 0.1776499171840928 0  0.9839320088736835 0.2882512684933811 0  0.9776207086145389 0.3981181921813499 0  0.959104978087484 0.5061830527190283 0  0.9283607877970305 0.6121364122979738 0  0.8858838076154651 0.7137698928464931 0  0.8327458715976933 0.8091882409414527 0  0.7691300942395226 0.8983032798196464 0  0.6958379131046615 0.9798480779716832 0  0.6140795284393954 1.052331657242811 0  0.5245441104301892 1.115706268788973 0  0.4286894655562163 1.168712639994323 0  0.327557601747133 1.210608486578106 0  0.2218794118919955 1.241381872189973 0  0.1134912007911441 1.26021055383124 0  0.004657476690679654 1.267168398461443 0  -0.1044663701566038 1.262067610431305 0  -0.2131343026823097 1.245029076826281 0  -0.3194152605673277 1.215942436794019 0  -0.421452788303989 1.17545632740455 0  -0.5179737929434465 1.124101810427792 0  -0.6079998200342025 1.062721823473982 0  -0.6914876844332508 0.9911766817187676 0  -0.7660091973284867 0.9112893360706752 0  -0.8312218004866326 0.8237084627272271 0  -0.8864469163916655 0.7292378924911596 0  -0.9307816290037908 0.6284313407338703 0  -0.9635841062983419 0.5234462842628005 0  -0.9843323817681703 0.4153366292123588 0  2.732861022543927 7.765750249344596e-07 0  2.725229354695111 0.2042270633113204 0  2.702349212098189 0.4073164223674715 0  2.664351762003087 0.6081171729071003 0  2.611456515457084 0.8055270922137249 0  2.543957149038449 0.9984297529544929 0  2.462220474801056 1.185742057254179 0  2.366733582148608 1.366438514197436 0  2.258007288362089 1.539483232177632 0  2.136644023226996 1.70391783034892 0  2.003340184488358 1.858821644668987 0  1.858819209918386 2.003327953230395 0  1.70392321214906 2.136641292777782 0  1.539478419342459 2.257996837000122 0  1.366436847325337 2.366736740874786 0  1.185750712337158 2.462232694738627 0  0.9984328757769529 2.543961351464448 0  0.8055292923078213 2.611458332587549 0  0.6081179491434141 2.66435549785036 0  0.4073186343992645 2.702349321603746 0  0.2042268032609476 2.725231453818201 0  2.555701855973597e-06 2.732873380619086 0  -0.204223474248417 2.725231316606513 0  -0.4073125128249819 2.702340240852173 0  -0.6081217699372486 2.664356129643008 0  -0.8055248027177523 2.611449635097506 0  -0.9984327444870015 2.543958979774609 0  -1.185747206816158 2.462234162548015 0  -1.366437504945891 2.366738024464025 0  -1.53947718537588 2.257997565088377 0  -1.703913125249405 2.136637297492661 0  -1.858820207132123 2.003328445956702 0  -2.00333965689934 1.858823134421821 0  -2.136642991742801 1.703920648540195 0  -2.25800207316117 1.539482462142558 0  -2.366735595623793 1.366437948667202 0  -2.462234872736303 1.185742633270212 0  -2.54395728219651 0.9984287377295986 0  -2.611456990026301 0.8055279525369825 0  -2.664350655551839 0.6081240361268405 0  -2.702346924526742 0.4073093970239675 0  -2.725228583856917 0.2042274533258725 0  -2.732861260668841 -3.633356808369256e-07 0  -2.725228137697502 -0.2042308439521808 0  -2.702346818140938 -0.4073123158531584 0  -2.664350251746185 -0.6081256430541915 0  -2.611455486161539 -0.8055305224398484 0  -2.543959335548108 -0.9984247119661979 0  -2.462229124151762 -1.185750840060364 0  -2.366736628599674 -1.36643240967908 0  -2.25800331055211 -1.539481183155261 0  -2.136634780716279 -1.70391105152081 0  -2.003327591706494 -1.858817566737632 0  -1.858819811849707 -2.003328751823929 0  -1.703910456107979 -2.136635747578569 0  -1.539475462021546 -2.257996335217382 0  -1.36643913662619 -2.366734864061663 0  -1.185743200236473 -2.462223668588005 0  -0.9984283742628252 -2.543960093269269 0  -0.8055334722537699 -2.61145631731484 0  -0.6081162085927168 -2.664353649992395 0  -0.4073141421538355 -2.702351846714402 0  -0.20422590047091 -2.725228441636776 0  -1.763327603390086e-06 -2.732872237145885 0  0.2042301896434444 -2.72523105350776 0  0.4073106510676925 -2.702337928171902 0  0.6081198573839673 -2.664344152523257 0  0.8055311871639439 -2.61145793642828 0  0.998428994406769 -2.543959042547442 0  1.185741065772635 -2.462236833361851 0  1.366429864826864 -2.366727267668842 0  1.539475933016698 -2.257995323112889 0  1.703911799864752 -2.136637438688414 0  1.858825058048267 -2.003337316521972 0  2.003336155670575 -1.858823716065181 0  2.136646178672348 -1.70391883201868 0  2.258003680563784 -1.539480517793882 0  2.366737815886611 -1.366431426953087 0  2.46223080216567 -1.185749088198972 0  2.543960497780482 -0.9984297683745454 0  2.611456488301221 -0.8055222531204353 0  2.664352646057157 -0.6081162393842328 0  2.702346097325218 -0.4073167799191185 0  2.725216634605969 -0.2042278342688729 0  0.0883832211755768 -1.714175551628832 0  -0.006145953230274501 0.2913318496803576 0  -0.9187738269425753 -1.479026326661618 0  1.012182239388284 -1.420629994080191 0  1.641681895175703 -0.7250077626703486 0  -1.643198023481016 -0.7278377488685354 0  1.854272499050866 0.1975529306609822 0  -1.859369165893318 0.1974982164722035 0  1.64518837074427 1.000184572147197 0  -1.641648014619978 1.017587147837981 0  1.154483333129349 1.596250465585768 0  -1.136285711355561 1.612447771084775 0  0.4786249715932155 1.936950632460871 0  -0.4576595735075803 1.942898723529191 0  -0.5131126339594447 -2.001104897369631 0  0.6846508927853727 -1.973782189423972 0  -1.583181012248991 -1.366768622237234 0  1.620444516104972 -1.397579254393374 0  2.127151071318822 -0.4074117469636462 0  -2.127383942719437 -0.4083851647038392 0  -0.2490675400190258 -1.259440817534726 0  0.4300566794074824 -1.245491451698476 0  -0.9873535820196494 -0.9238694186526061 0  0.9313972265718998 -0.9067324952078335 0  -1.021677690553251 -1.982266658293074 0  -0.0510728304553549 -2.220977122784745 0  0.4732174283501897 0.4309843217681765 0  -0.5045215444783406 0.2790419530565076 0  1.183691118388587 -1.899576088411014 0  0.3377819312697574 -0.05269941253513827 0  0.1027769206009108 0.7688120395444682 0  -0.2229897356977027 -0.1367417314872158 0  -1.465816641098816 -0.209294668874148 0  -2.079514980824459 0.7013902160084312 0  1.458481896766362 -0.2078514242728463 0  2.091506062253557 0.7231994034199607 0  1.98195067847084 -1.07688524962338 0  -1.976241256479011 -1.08542073474807 0  0.01202562792241058 2.201726383478745 0  -0.03802956185122501 1.731906677766915 0  1.646688089985052 1.507944519005489 0  -1.629890959530888 1.525808503166859 0  -1.48060569806723 0.5277340518684491 0  1.47039193508162 0.5174543515782617 0  2.279072249088395 0.02130603496809553 0  -0.9122001054026094 2.079850901081147 0  -2.280710690126031 0.01838429182965988 0  1.161928773761039 -0.5388320442259741 0  0.9169307682248066 2.089376714597163 0  -1.222699281953277 -0.5677208905801772 0  1.1904374459959 1.119017857199004 0  -1.160404894961253 1.146465285565468 0  -1.299619678130022 -1.672104625529833 0  -0.641683554635695 -1.154638226198239 0  1.354139705137205 -1.04738451921959 0  0.7027038348667534 1.53487049852721 0  -0.6746002418637861 1.544578443488864 0  1.984193794177389 1.238649423456987 0  -0.3677045062722932 0.7014581835225427 0  -2.045290371016732 1.112403697330703 0  0.3757809533707802 -2.273538871830892 0  -1.435637733437056 1.862769283747534 0  -0.5219725220075003 -1.582197213540573 0  1.454517118689477 1.845402300920295 0  0.4418319447563866 2.322934237267537 0  -0.4417749852869619 2.326554557680169 0  0.6548944716855701 -1.577136519048868 0  -1.478320052699445 0.1570274923389218 0  0.3373613636475935 1.591297524137799 0  1.478416006067759 0.1528059793367217 0  2.315818002800833 0.4084411368233696 0  -2.225572382154978 -0.781386469200944 0  -1.213385696467389 -1.239265334169613 0  0.07939195109258373 -1.089605726111879 0  -2.188009317702799 0.3618852391752911 0  -0.3906142401365461 -2.34371290749524 0  -1.331158986054419 0.8411679134153164 0  0.9580028563552255 -2.199347931173772 0  0.07046287191900559 -0.308720645413584 0  -1.696926995676199 -1.697945588273225 0  2.227430785567372 -0.7786770959696527 0  1.546840496743841 -1.798835598781483 0  1.764000610924815 -0.39740237899741 0  -1.766101411956466 -0.4024091645324322 0  -0.781042402488483 -2.252323541195991 0  -1.336499364414869 -0.8898163236624725 0  1.964118329500186 -0.115560757039313 0  -1.965427388691477 -0.1166253915710287 0  -0.1886632947589183 -1.90672626086 0  1.238489487242537 0.7711131345533186 0  -0.3341809659425902 1.561478485474566 0  0.6274233250571317 0.1175758779559021 0  1.955793472951993 -1.407406413531996 0  -0.5530997430367812 -0.06405199601672662 0  0.4069433757736732 -1.785915023549637 0  -1.929452472198193 -1.428457243093873 0  -1.646976771389473 -1.050002945057855 0  1.3247476868
[...]
<PointData  Scalars="f_4819-1"> 
<DataArray  type="Float64"  Name="f_4819-1"  format="ascii">3.4098557466596896e-01  3.3575149685838079e-01  3.4281877214400402e-01  3.4790006103683524e-01  3.2884957714198682e-01  3.4055491072288441e-01  3.3083827338288624e-01  3.4159304426368042e-01  3.9309913628537546e-01  4.1328965230988168e-01  4.2886180310816047e-01  4.1111050882184857e-01  4.4142423798896424e-01  4.1366716203835041e-01  3.8706654446810712e-01  2.5315512281105262e-01  3.4873029591003019e-01  3.9976990377954275e-01  4.3854097473685488e-01  4.4853611964694201e-01  4.2644281502188497e-01  4.3591831348845783e-01  4.1008252879375900e-01  3.6924511225321532e-01  3.3197732447745976e-01  3.3839940625379517e-01  3.3667759287912308e-01  3.2934278599209538e-01  3.3263704078064482e-01  3.4124023745405063e-01  3.5101559643713909e-01  3.3615297598843547e-01  3.4798868014255685e-01  3.5093796387836285e-01  3.5415388019479749e-01  3.5436073685665176e-01  3.4603927624180253e-01  3.6356919487779149e-01  3.4776067481317885e-01  3.5537451560898647e-01  3.6381704345191274e-01  3.5631635803955919e-01  3.5900873354651158e-01  3.5952560687107216e-01  3.5563056790094472e-01  3.5693435926995248e-01  3.7416295186961523e-01  3.5857157727176719e-01  3.5608315522644901e-01  3.5092663897167131e-01  3.5583622741164672e-01  3.6203049843511259e-01  3.5126516979849320e-01  3.5774888702590540e-01  3.5783437515747696e-01  3.4740608362843389e-01  3.4650043749680293e-01  3.5437426061842914e-01  -8.8795147222274967e-02  -3.4578313296657497e-02  -2.0625493272060817e-02  -4.1943910608520908e-02  -3.7032348198232347e-02  -3.3318347730452093e-02  -9.9733250438685445e-02  -3.7017203256918318e-02  -1.3522771038919827e-02  -3.5404577932227517e-02  -2.5892304083742653e-02  -8.2503617681426375e-02  -1.9501185016945144e-02  -7.2612075512670071e-02  -2.1765043116813796e-02  -2.5486206865401050e-02  -6.0973941008907765e-03  -2.0537707502758108e-02  -2.2021184226868318e-02  -2.0273161161491599e-02  -1.6912211618516367e-02  -2.2435364979202052e-02  -2.5416097292955103e-02  -6.8677726239950401e-02  -1.8771488172454637e-03  -7.3641635566628810e-02  -2.0821768648949236e-02  -2.4309091123743021e-02  -9.3345432577422831e-03  -7.3308893407521072e-02  -7.7376503053182694e-02  -7.8090931577772374e-02  -2.3973046842140067e-02  -3.0875746952678442e-02  -3.4585044200978000e-02  -3.0465034862502467e-02  -3.6895390573398870e-02  -3.5314939560999237e-02  -3.0977329294039183e-02  -4.1462032340536262e-02  -3.6175978290947021e-02  -3.1858853336414063e-02  -8.8363559367184583e-02  -3.9499343795675101e-02  -3.4660607987598367e-02  -4.1443110048378841e-02  -4.1806167658098449e-02  -3.7315692567109829e-02  -4.0741743189334947e-02  -4.2849736422989081e-02  -3.3122597946678003e-02  -9.3367556211505956e-02  -8.9654005144913673e-02  -7.8643696983262235e-02  -9.1540462276821583e-02  -8.3151499544113577e-02  -2.2763116037162311e-02  -8.2731164199734836e-02  -2.1690230770745715e-02  -3.0380830571194777e-02  -3.2640702302833113e-02  -1.0513922403993703e-02  -4.1119758180485987e-02  -2.4899349835340347e-02  -1.6156317397075747e-02  -8.2624016897276234e-02  -7.7083607531012635e-02  -2.2159157142759376e-02  -3.0517243706573681e-02  -3.1725096799290219e-02  -8.5701033798839879e-02  -8.4205321370683525e-02  -8.0730133894708525e-02  -2.4070824028374870e-02  -3.3205005057086179e-02  -1.7729148377019513e-02  -3.2338702307337944e-02  -3.7151514745497112e-02  -4.0930387379960527e-02  -1.9958095502350851e-02  -4.2264320429671202e-02  -3.9200966368927920e-02  -3.5020293947663754e-02  -1.0052898729142194e-01  4.1252948762940146e-02  7.8969082331367968e-01  4.0775841224289476e-02  4.2306692461770212e-02  3.4679621213215973e-02  3.3710562691223286e-02  3.2610141537856283e-02  3.3172233640906955e-02  3.8540543528246790e-02  4.0158191829490583e-02  4.5940720517207816e-02  4.7493046901783811e-02  5.1814012583664512e-02  5.2639483828879265e-02  4.2752280565778886e-02  4.3542214115523545e-02  3.7443192550964573e-02  3.8661400281497275e-02  3.1443271205744937e-02  3.1180526750550976e-02  2.0807610359991884e-02  3.0597589662095859e-02  3.8723822614724825e-02  4.2722843498313054e-02  4.0654395685516036e-02  4.2090202680693946e-02  7.7431000428462415e-01  7.7792218472638153e-01  4.1575204471931713e-02  8.0616050126452954e-01  7.6883192579152004e-01  8.1023411559268188e-01  2.8178720906158944e-02  3.4962386999489906e-02  2.8712490303462120e-02  3.3831170411846412e-02  3.3815912569310651e-02  3.2718327747563898e-02  5.2245556038320505e-02  5.2966485917923543e-02  4.0778532692766815e-02  4.2504130116315382e-02  3.3868696769921505e-02  3.2903044820505566e-02  2.9997813397675519e-02  4.8929126296827712e-02  3.0325344507986844e-02  2.8488059371550262e-02  4.7730870233681583e-02  2.9605845477061590e-02  4.0665851259500604e-02  4.3355433885171879e-02  4.0005754761174246e-02  3.7614592277192105e-02  3.8966436234052257e-02  4.7847101313950542e-02  4.8865045547802577e-02  3.5771333997096512e-02  7.6789976845847574e-01  3.6292705139565444e-02  4.1386656902960124e-02  4.3796864202899001e-02  3.9944580937305907e-02  4.2252058931685897e-02  4.9272136590420429e-02  4.9704412104061853e-02  4.2320538334975941e-02  2.9237000217542587e-02  5.4254887933859144e-02  2.7623134976443829e-02  2.9877162315982749e-02  2.9535579857065428e-02  3.9344224013587399e-02  -6.5061130358749905e-03  3.2495949348021684e-02  3.9594464914530468e-02  3.7386313100166310e-02  3.9610869042768046e-02  8.1377651604720824e-01  3.4742557679121516e-02  2.9903418866611440e-02  3.8015645248507139e-02  3.2518442531237451e-02  3.2167452203349101e-02  3.8899429662678883e-02  3.5795165610300425e-02  3.2114217802621081e-02  3.2227828960401293e-02  4.3115416480301892e-02  3.1472893763341621e-02  4.9787595666361276e-02  7.7460743589240255e-01  3.2357352823375034e-02  7.8512404864644958e-01  4.3298582424053413e-02  3.2519206507980833e-02  3.5740441573036089e-02  4.1464044762701602e-02  3.7765778602015569e-02  4.0399321090037070e-02  3.5716354315273278e-02  7.6188483430745146e-01  3.6794260313951520e-02  7.7770641279166286e-01  2.7280685097301510e-02  2.6276930426797067e-02  4.8235685676352280e-02  4.2296460873593955e-02  5.0112949871963783e-02  4.1044157345522074e-02  3.7155088315849114e-02  4.3581592729056796e-02  2.8535313490265724e-02  3.7094272049543763e-02  4.3511961657299647e-02  4.1742755606314332e-02  3.3788961021016889e-02  5.7254149612489529e-02  2.9093386099625126e-02  3.6949415617277201e-02  4.3151036354086014e-02  4.3466211793653647e-02  4.3035868186159627e-02  3.2039705641869733e-02  3.7963278462850462e-02  4.8628118523637326e-02  7.5830237138938550e-01  5.0992213508533515e-02  2.9045092351878538e-02  3.3776945541604382e-02  7.5840872375988988e-01  3.2535518008996997e-02  3.3375583166531615e-02  4.8186482540716412e-02  4.3983905388270558e-02  3.3995988267938468e-02  4.0127232050124723e-02  3.8071599534603644e-02  2.7546169039362366e-02  3.1258562416861910e-02  7.8025765426972038e-01  4.7696099469487920e-02  3.1146379749463160e-02  3.1816686557108599e-02  3.1393148612187421e-02  3.6411720657317390e-02  5.2740350304347761e-02  4.8224440460250047e-02  3.1055477463970575e-02  2.7079461215556953e-02  3.1472586105981123e-02  2.9813549208446432e-02  4.1142612828132391e-02  3.5463688963220191e-02  3.4723186509563041e-02  2.6200360006365626e-02  4.6019825910390437e-02  3.8388160186155679e-02  8.4895754243118593e-01  3.7729258836315595e-02  8.5373076107092072e-01  5.0767118649428455e-02  4.5911332154417964e-02  5.2628905881015889e-02  3.4191822280218949e-02  3.5214271483674259e-02  3.7374144042836281e-02  2.7802849423633924e-02  3.9375350224223650e-02  3.6023701585175684e-02  5.2263593751193604e-02  4.1427050313325962e-02  7.9378523525958844e-01  7.8910065671760288e-01  7.4752556847615081e-01  7.5049365217991959e-01  3.5247414148299454e-02  4.1542130091202133e-02  7.5194022327383925e-01  7.7273128965877536e-01  8.3980179770107566e-01  4.9112465090647366e-02  3.3598052021755108e-02  7.4463863688916232e-01  3.3521072668512064e-02  3.3300276285791325e-02  4.0992120264085517e-02  3.6432732236887359e-02  7.8345970990575187e-01  4.0400348826400555e-02  3.6313745432379953e-02  9.7640602800093228e-03  7.7798607744994042e-01  4.5300508257321417e-02  4.0635978434710486e-02  2.7524120885708422e-02  4.9975003613375431e-02  5.9544209814345155e-02  2.7259627043119947e-02  3.2106532902354955e-02  4.2071094271668989e-02  2.7461755438556171e-02  3.3882727285376744e-02  3.7353747974165873e-02  4.6540208359690187e-02  2.5128926123592830e-02  4.4227230550861620e-02  4.3586498333225858e-02  3.8788792695270406e-02  4.7014966310198830e-02  4.2821437031158975e-02  4.2537541517422540e-02  4.3801793030044417e-02  4.2061290736824436e-02  4.4328971615956496e-02  4.5381297239093926e-02  3.7706907966870935e-02  4.3412418230036560e-02  3.5072837260077601e-02  2.9739838222698496e-02  5.3302503024354936e-02  5.3163298358088584e-02  4.8111620659664581e-02  5.0096645169151993e-02  4.1288201788437652e-02  4.6355505709799481e-02  7.2871546749011940e-01  3.7061743572374975e-02  6.4082218482242756e-02  3.8066371922214216e-02  3.6431247923529413e-02  3.0825051602858408e-02  2.5083990505110228e-02  5.0429261702272146e-02  2.5368249225052014e-02  3.2497907557090353e-02  3.0926669105845486e-02  7.7308773276403309e-01  3.6175026942074910e-02  3.6080147798405557e-02  7.3476328742019467e-02  5.1774884998284504e-02  7.0841058300688944e-02  7.7020068277666132e-01  3.2851094138818170e-02  3.6559017450302121e-02  4.6927764126078596e-02  3.8319670037918238e-02  3.8590473067461550e-02  4.0529954576059866e-02  2.4740202343485996e-02  3.3985110724956094e-02  3.3021847394333372e-02  3.6692708332125956e-02  4.2440435342712038e-02  6.4298433609434102e-02  4.0919097055051812e-02  3.2932781471451733e-02  2.7380085114202125e-02  3.9228114292387629e-02  3.8239636829629130e-02  4.1448730004641748e-02  6.2605363816215981e-02  3.1515203457063927e-02  7.5941036694403752e-01  2.8680272663809937e-02  3.8805208148469501e-02  3.5882694390938386e-02  4.2102657795387272e-02  2.7867781890472166e-02  3.9274775453483728e-02  4.2602525212071876e-02  6.1477129352713725e-02  3.2100038441352209e-02  7.3094141454307016e-01  3.2907027719114579e-02  4.2481097625930567e-02  4.0203404093994977e-02  3.9211350695087209e-02  5.0492222597905458e-02  3.8999400844010330e-02  3.0254518093772900e-02  7.9185322584992768e-01  3.8653160499613211e-02  7.7249436885921985e-01  7.8696954140760755e-01  3.0377791194892249e-02  3.8162639851340600e-02  3.2090409866917899e-02  3.5492631182019896e-02  2.6447511559086173e-02  7.9036121585723607e-01  2.5639721634659694e-02  4.3225488779941611e-02  2.7323722929467862e-02  4.0063980787190395e-02  4.1893254839784649e-02  8.8639186333909226e-01  4.5513095507808028e-02  7.5988178715683774e-01  4.2907199298380591e-02  4.3740219415096704e-02  3.7647083108882200e-02  2.9450977755133622e-02  1.2802337031197554e-02  1.0293870558059302e-02  3.2216573103957952e-02  2.3181331719046919e-02  2.5416264833662144e-02  4.2436137761959501e-02  2.3483287028460347e-02  2.9976844759384370e-02  2.4212776417583268e-02  3.2154376457232937e-02  3.1424236098354111e-02  3.4903807577971631e-02  3.8642905414160211e-02  4.1153353966892250e-02  4.2116902757665331e-02  3.9034540789621930e-02  3.1357785576983883e-02  4.9604238894522097e-02  3.4472814386978419e-02  8.2304515340342044e-01  4.1755952577158084e-02  2.8913894732998064e-02  3.1230112390062896e-02  4.4886180033617676e-02  4.4379983787506606e-02  5.1132487454164474e-02  3.9388696335830135e-02  4.2675789973445045e-02  5.0720273151005371e-02  5.1866556319022164e-02  4.1669222031026097e-02  3.6043898990855271e-02  4.5025221681788574e-02  3.5304049866212751e-02  3.1266787327530868e-02  4.1135327441967802e-02  7.9690041844040371e-01  5.0523805497291359e-02  3.3352479291840313e-02  3.7887140315941967e-02  7.1647265087767875e-01  3.2764016606109427e-02  3.0854394993162178e-02  4.0785883264873563e-02  3.1203064396222436e-02  3.1959688267568599e-02  2.8563455514163578e-02  2.6685403396381403e-02  2.6514992580076818e-02  1.0110905307102989e-01  5.0982156433515530e-02  3.4479961162630066e-02  3.2244063149445265e-02  7.2407640050435662e-01  7.3518144675634423e-01  4.3220713220101861e-02  4.9770889557183208e-02  1.1517492625592994e-01  5.1922057705592460e-02  7.1374040046845133e-01  7.3034445705164108e-01  3.1370061316167673e-02  3.1231225769523412e-02  2.7407461944064220e-02  2.8090752656953336e-02  4.1335822871862951e-02  3.3145674890121227e-02  4.3843729953437931e-02  5.3034903203154196e-02  3.7686588757497211e-02  3.3279190707683100e-02  1.6816932627768077e-02  2.3810679053023170e-02  8.6426649768584954e-02  7.0897243418196898e-01  7.1342864359927172e-01  7.6084717157662485e-01  7.1898168770222626e-01  4.2825814189745189e-02  3.3562795757096156e-02  3.3948743123237604e-02  3.1575423457017596e-02  3.4542924123856476e-02  4.4243026681462225e-02  4.1267871156299749e-02  4.1740570827656434e-02  3.8839427854312512e-02  3.0016269638950759e-02  3.3492201139309001e-02  3.2435093202457604e-02  4.3135831358193023e-02  3.9870908433202810e-02  2.1663321706995729e-02  4.0271397919416321e-02  2.5980120414407996e-02  8.4100254139998221e-02  3.7379253845509886e-02  9.8828667126782677e-02  3.2563920885918127e-02  3.2230173601953356e-02  3.2146379075405705e-02  3.1832459438556684e-02  4.0168715209501833e-02  2.8863255940471056e-02  3.3855552576388281e-02  3.2304526787160733e-02  3.5452795015703954e-02  5.1769174982282347e-02  2.6168470703298953e-02  3.1143986619562497e-02  2.6152147465972157e-02  4.0731312567414309e-02  3.6385503393409617e-02  2.5062397557301809e-02  4.1850163097298936e-02  3.6554045853025394e-02  7.9177520765774945e-01  7.7408577598198447e-01  7.8401138305783191e-01  8.1088808616430830e-01  4.4116742387021367e-02  1.0632840065250743e-01  3.8692768950022632e-02  2.2037541018876491e-02  4.7857319941354171e-02  3.4022105264506407e-02  2.4483499446086483e-02  3.5172552164889681e-02  3.6939663800488028e-02  3.2341692649658089e-02  3.2547026966372759e-02  6.4392192604466436e-02  2.0232601411679263e-02  7.7483433916506728e-01  7.6730960432043294e-01  4.3159346508234435e-02  4.3037804669288082e-02  4.1703479149722444e-02  7.7380046994153417e-01  2.1701596308953429e-02  3.2500342130883528e-02  2.1325635105292860e-02  7.6749431631192377e-01  3.2151516863292894e-02  3.5186993605767138e-02  3.2575045912050127e-02  4.8442827320821544e-02  4.0421351442008494e-02  9.4808088295105966e-02  4.3110638706705860e-02  4.6133341136849353e-02  3.7390715266087796e-02  7.7783267401821066e-01  8.1815459930448742e-01  1.0925141254570553e-01  2.7771693774462362e-02  3.6251150366505037e-02  6.9507698115893024e-01  6.9357101939866250e-01  3.1547633464804326e-02  4.0298980832973494e-02  4.0143051153295223e-02  2.5601356650857880e-02  6.8125775515599030e-01  4.3862292761874491e-02  4.3157374453321552e-02  5.3159364220925369e-02  3.5018292042640960e-02  3.7048848780048452e-02  3.5619129587465596e-02  7.9298127257241086e-02  1.0994144596919390e-01  3.9874906808730085e-02  2.8776643246036803e-02  4.7910878220316533e-02  3.7234031526334414e-02  4.4379748504787653e-02  3.8586644302621681e-02  4.1414866266640149e-02  3.5224695897165634e-02  3.4592774276013129e-02  3.6593149175837218e-02  3.6387702662516404e-02  4.8810508380737708e-02  2.0359322122526367e-02  3.0222416828454973e-02  3.4386019898410253e-02  3.9324227831462714e-02  4.0565218739100781e-02  8.2712599308593004e-01  2.6365267556963490e-02  1.8383215672515135e-02  3.2857828837831830e-02  3.6112515777824289e-02  3.6507890356830025e-02  3.8555914877337678e-02  3.7067476212561346e-02  3.3379842444174829e-02  4.9255036553235224e-02  3.8742632859903869e-02  5.1418337042841392e-02  3.7001641856455852e-02  4.5963373131217629e-02  4.3253681864651755e-02  3.9883043829039913e-02  2.5898359248996562e-02  2.7098200228507490e-02  2.9727623563481912e-02  2.8808243848287247e-02  4.9301252796803495e-02  3.2161192730048874e-02  7.6792488902068287e-02  3.3711357281022244e-02  2.1142693353041930e-02  2.8816139317112289e-02  1.1292386331696638e-01  7.9664362326033822e-01  7.8731792285922764e-01  7.8712081038128023e-01  6.8096054825333585e-01  3.0966879279140554e-02  4.1988966690104421e-02  4.1765047334856663e-02  7.8428915851088332e-01  2.4013178787518318e-02  3.1610984979708129e-02  4.9995079189837761e-02  5.3179357627612216e-02  7.2562159953472122e-02  3.3896056407818551e-02  4.2953678993334625e-02  4.3132125694561978e-02  7.6353240769593311e-01  4.2584779787513329e-02  4.6032488247554175e-02  4.3448821452695650e-02  3.2269690866073716e-02  2.6947474020595059e-02  3.4935179827914435e-02  4.3676405429963538e-02  4.1649845541084224e-02  3.8177223969897818e-02  3.4536753983956933e-02  3.5636520661970282e-02  3.8120950102996272e-02  3.1867203355122900e-02  5.3144599883881490e-02  1.3949143907426905e-02  4.9009461035954181e-02  4.7276878320477826e-02  2.2148377396716518e-02  5.0812343720639488e-02  3.1692454949476014e-02  7.7022791295648496e-01  3.1270656240307601e-02  3.3542610595862957e-02  3.1967056093647417e-02  4.2691538156905046e-02  4.4442661826829273e-02  4.1919003690224346e-02  3.9041903492289268e-02  3.3692097476665711e-02  4.3570908481666275e-02  4.2868727307476026e-02  8.4003754296359687e-02  3.1304271344162742e-02  4.7083184125434933e-02  5.1000777398355547e-02  5.1714754131620411e-02  5.0562475181288334e-02  4.1751886453034744e-02  3.3126555160706408e-02  3.9907124871155573e-02  2.5763382487044049e-02  3.6478022829734426e-02  4.9971012420990245e-02  7.6179473891940053e-01  6.6456832527935639e-01  7.6581263461069971e-01  3.5195766020605847e-02  2.4914091795698440e-02  2.2429716921852260e-02  2.7081570798233565e-02  5.2355850547554109e-02  3.1062991137600852e-02  3.9053967786268219e-02  8.5953862129260275e-02  1.0020171183783570e-01  3.1356178650157308e-02  1.2687904006944661e-01  3.9298500975165865e-02  1.7751684396708135e-02  3.3568719728761888e-02  3.2948826493333125e-02  4.1277040971554553e-02  4.8036854497428151e-02  7.8612319086451465e-01  3.3084463056623430e-02  7.6567968200877667e-01  3.2413724365859389e-02  1.0686701340410171e-01  2.8323076448356823e-02  3.7946315724707476e-02  1.2996067658311000e-01  4.2537001016279566e-02  7.9313934775771722e-01  8.4496501996461762e-02  7.8369157657844790e-01  3.4790531538858596e-02  2.9883334458096451e-02  3.0520422760455673e-02  3.4262727791561108e-02  3.4518280881601297e-02  3.4059406821892436e-02  3.2290286187236693e-02  7.6620593546730964e-01  3.2133565673826275e-02  3.4031702115171210e-02  2.2558601633476151e-02  7.8121419094853950e-01  3.3973223248966331e-02  3.1478905229761052e-02  7.2977195535666228e-01  2.3245384807603787e-02  9.7312017886725846e-02  3.2236046232755278e-02  2.7618439179723689e-02  3.3551970228301635e-02  3.0443143118619748e-02  3.4525696228616912e-02  7.9594332169221771e-01  3.9182040570698941e-02  2.9776272943523207e-02  4.1280478547003646e-02  6.6284602340973908e-01  3.1853293921640206e-02  3.3670014663471588e-02  3.2218440154221373e-02  4.3045899216453715e-02  5.0982722416143676e-02  5.0387512987455536e-02  3.0424614538969715e-02  2.1305973066730714e-02  2.9913276490838123e-02  3.9553714658061866e-02  3.9226792131626428e-02  1.1662168614969257e-01  4.1957694601673548e-02  3.9802994913483707e-02  4.1780523316228481e-02  3.5672469448378361e-02  4.0555950082795673e-02  3.9344060235688677e-02  -8.4258653986827876e-03  3.7462764783359699e-02  2.3743615805658104e-03  2.5865954886565061e-02  3.0076303755197823e-02  2.8336424584372726e-02  4.0509109187114242e-02  2.9952539170418926e-02  3.6663402483862094e-02  2.9964695796248754e-02  9.7695745759134950e-02  2.9031147901723578e-02  8.1386340761074968e-02  2.2685731469453272e-02  2.3876711055457224e-02  4.6572687949868651e-02  4.4878616249119818e-02  4.5844798028151230e-02  2.4382551409582301e-02  4.7759487008802656e-02  9.2313370741946149e-02  4.8948904202803595e-02  -4.0392594087739868e-03  3.2828959934979314e-02  4.2038289803527258e-02  5.2525899577078719e-02  8.4892276765037589e-