<?xml version="1.0"?>
<VTKFile type="UnstructuredGrid"  version="0.1"  >
<UnstructuredGrid>
<Piece  NumberOfPoints="737" NumberOfCells="1356">
<Points>
<DataArray  type="Float64"  NumberOfComponents="3"  format="ascii">-0.9393782345620304 -0.04881894906721997 0  -0.936308389522607 -0.1528375767045599 0  -0.9216090892862097 -0.2556137729698847 0  -0.8955317138633154 -0.3554732578948635 0  -0.8590938573575705 -0.4513674292323051 0  -0.8134734267089975 -0.5400536607136607 0  -0.7606397488138256 -0.6206261569607956 0  -0.7001198619959971 -0.6952554015338194 0  -0.6332803211650675 -0.762274335543361 0  -0.5616352594447052 -0.821330020434574 0  -0.4846021205774882 -0.8728605389918229 0  -0.4035621299409815 -0.9162986440847863 0  -0.3179600267996927 -0.9518221103343872 0  -0.2286602247253229 -0.97887694900325 0  -0.1392823986143026 -0.9967078262853123 0  -0.04819685187081388 -1.005784341497682 0  0.04463030812001122 -1.005979311686261 0  0.1361520794908185 -0.9971989382547871 0  0.2255643343939032 -0.9798413984194168 0  0.3138325868168319 -0.9535316141300776 0  0.3993947152116923 -0.9187275277535766 0  0.4801843541644623 -0.8759760442505214 0  0.5582827979189304 -0.8243908125496382 0  0.6311587697711778 -0.7650917968152936 0  0.69807558448563 -0.6984030430906892 0  0.7578008482256784 -0.6255631775465958 0  0.8115944680792965 -0.5443826790792691 0  0.8576455423628232 -0.455596979106902 0  0.8944250851387959 -0.36048578926668 0  0.9207700124599996 -0.2612371944804637 0  0.9360844248520735 -0.1584506665639809 0  0.9397805819069333 -0.05384606392964646 0  0.9315140966722043 0.05092169164172771 0  0.9113533359281079 0.1549066111873369 0  0.8795024660821664 0.2557627969315248 0  0.8358299221021525 0.353085753014489 0  0.7815224153835562 0.444848728421231 0  0.7166208998494197 0.5304196157345041 0  0.6424300020943433 0.6079863802608093 0  0.5595940814592796 0.6767343550267948 0  0.4696054749996177 0.7352991383584283 0  0.3719034072586589 0.784034913529297 0  0.2699370600910075 0.8209242021824142 0  0.164712342679105 0.8458553624000812 0  0.05648157554493957 0.8585859791655472 0  -0.05176988507011351 0.8588717029332229 0  -0.1590586705941327 0.8467847965588701 0  -0.2654656817030174 0.8221651562334784 0  -0.3674744839678371 0.7857920757526683 0  -0.4636049680707503 0.7385726793950463 0  -0.5546844937176655 0.6800405856165175 0  -0.6387699905695703 0.6110878370161563 0  -0.7131637113493021 0.5341153908364102 0  -0.7780972969714074 0.4496231025374853 0  -0.8335365080291466 0.3572717411264061 0  -0.8776493859408054 0.2599008602975182 0  -0.9098703912990996 0.1598759194383781 0  -0.9305674442882953 0.05634116244971082 0  1.901702989379755 -3.35923398831325e-06 0  1.890561905033373 0.2056072257761448 0  1.857244172061323 0.4088087702336129 0  1.802145025472849 0.607209661347934 0  1.72593337922328 0.7984979984232384 0  1.629493827247402 0.9804278161149467 0  1.51393893894287 1.15086914301918 0  1.380633056821037 1.307799206797571 0  1.231142626979903 1.449415347682737 0  1.067214333176152 1.574022768349924 0  0.890777463739391 1.680186111921238 0  0.703902460695806 1.766640542685298 0  0.5087585847534257 1.832377853674053 0  0.3076588158279784 1.876660491665307 0  0.1029497209219063 1.898920227835985 0  -0.1029553947372533 1.898920384746269 0  -0.3076667408318352 1.876656856345369 0  -0.5087573294395816 1.832394293205982 0  -0.703890883163137 1.766633607500252 0  -0.8907744390925092 1.680184500854029 0  -1.067209427475358 1.574011946228351 0  -1.231142721668029 1.449409244078231 0  -1.380633463519082 1.307801973942676 0  -1.513933297541488 1.150867303822585 0  -1.62949634560307 0.9804248626537353 0  -1.725941929446386 0.7985047161776272 0  -1.802157326693172 0.6072239675619663 0  -1.85722893355765 0.4088041477989869 0  -1.890558511586067 0.2056036984772332 0  -1.901704828531445 2.631773182112724e-06 0  -1.890555756293191 -0.2056154725907565 0  -1.857242094645297 -0.4088117823804012 0  -1.802142258476991 -0.6072157727280412 0  -1.725936813451102 -0.7985123645335981 0  -1.629477500326178 -0.9804260720822016 0  -1.513923099975271 -1.150855976952677 0  -1.38061734750577 -1.30779338118721 0  -1.231126424412678 -1.449399172351319 0  -1.067202894553057 -1.574010681215366 0  -0.8907704130009627 -1.680181741840214 0  -0.7038890336072966 -1.766628796105 0  -0.5087630088488446 -1.832386243651967 0  -0.3076584803819105 -1.876638005371119 0  -0.1029552688977735 -1.898900704643931 0  0.1029621033930429 -1.898913834188282 0  0.3076519833257022 -1.87665401038128 0  0.5087601116882763 -1.832385643999923 0  0.7038914749088735 -1.766637880465392 0  0.8907750718713432 -1.68017897893371 0  1.067203542899704 -1.574013498138848 0  1.231136308288347 -1.449409943545958 0  1.380619216481833 -1.307795448128104 0  1.51393668195967 -1.150858952064824 0  1.629478067579753 -0.9804251053454107 0  1.725937802949087 -0.7985106962720081 0  1.802143830886184 -0.6072139893629355 0  1.857243470442934 -0.4088162101666127 0  1.89054526849927 -0.2056095701073143 0  0.0001140797488762137 -0.02709006114448061 0  1.297947690871931e-05 1.379139546088565 0  -0.627542497508944 1.22963566123916 0  0.5905129391006512 1.252974650870846 0  1.023184112675122 0.9398807949533405 0  -1.077219702221337 0.8893594482524744 0  1.317976482377756 0.4983549947271943 0  -1.347128686979293 0.4033203743620699 0  1.419564538417215 -0.063963962363216 0  -1.423295062039488 -0.1055978974155665 0  0.0008380507739023016 -0.499594344393127 0  0.002768765902594624 0.4211448385626582 0  -0.4747926518894024 0.008726443596490868 0  0.4325415134692772 0.153958537306634 0  1.33871966558766 -0.5181404939754276 0  -1.329724450512996 -0.5584305406626087 0  1.095742980450615 -0.9608555718752863 0  -1.096129782264288 -0.9608311211939421 0  0.7410221119455732 -1.266211908163418 0  -0.7413067087598711 -1.265565419886457 0  -0.1553361557125688 -1.461984218136333 0  0.2826239297199307 -1.439204579745266 0  0.39991822561541 -0.299055376298599 0  -0.3838704044401979 -0.3928885099392689 0  -0.357330369163778 1.496325141614138 0  -0.2827886711238008 1.157124550344594 0  0.3378013252822863 1.51937154441969 0  -0.385328891502836 0.3662221236446901 0  -0.9721443174449306 1.228956965648779 0  -0.4168932968813817 -1.286864776943906 0  0.9747840075406049 1.266990502317342 0  -1.380605898009081 0.7514652339094035 0  1.57249288725272 0.2398120913874633 0  1.334867653847325 0.8406845299329693 0  0.339743913138007 0.4592756469364669 0  0.2849518155366909 1.136925386495163 0  -1.597266759239459 0.2451267384930745 0  0.2871899106352126 -0.5948277777986354 0  0.6378763220524984 -0.1348547594517483 0  -0.2149065192754618 0.1547707639511956 0  -0.7570737089672007 0.9217836813620129 0  0.7083424410455137 0.9479840473814883 0  1.576002248496593 -0.3111501876410874 0  -1.076750517797166 0.557634160991988 0  1.226223965903576 0.1767227152614409 0  1.375150357645329 -0.8128013824577677 0  1.039595353700558 0.557277027484229 0  -0.6116683011826419 -1.505182558475264 0  -1.623919518820497 -0.2809353763805958 0  -0.6214342786069277 -0.2589283944941109 0  -0.2549990447756696 -0.6468457540535484 0  -0.6303789826484045 1.507320074890906 0  -1.225128195803165 0.1089664935885529 0  0.001809640042241573 1.11072520871543 0  -0.11546862809842 1.629494962529539 0  -1.37380334837577 -0.838857613674721 0  -0.1404153926865362 -0.2627296994666729 0  0.773950881813133 1.445655336222583 0  0.5217530618674321 -1.569490260730468 0  -0.5004721068263116 0.9995802161805025 0  -1.178325951255021 -0.3414172333476795 0  -1.134679339281733 -1.213404844510031 0  1.036932695148873 -1.236162304484826 0  -0.8041766613021049 -1.002403854352046 0  -1.040440417735714 -0.7013564184809701 0  -1.206065517371553 1.120869272899889 0  1.195354166377874 1.135195736218483 0  1.207394243454466 -0.2795789996762427 0  1.079314646639128 -0.6819996422222078 0  0.80198456178585 -1.003636484378825 0  -0.1560821942593721 0.6090454490251876 0  -0.6231210551064341 0.2103620386800434 0  -0.3541382161829174 -1.629101197358485 0  -4.097481449558588e-05 -1.666968734395766 0  0.4916330795347663 -1.309592907780221 0  0.8634844675637761 0.7409120944462496 0  1.513533709578182 0.6677022885555551 0  -1.581773024036936 0.4959963284841917 0  0.1493069230565131 0.1949156569929753 0  0.6813869728273919 0.1011056069987102 0  0.5720716679414415 0.3379012294362233 0  0.09859305154645021 0.6297978808763645 0  0.1002335449503726 -0.7331356203704047 0  1.551134110764014 -0.639588904356018 0  0.1339782510807642 -0.2619246323018191 0  0.2859390016333287 -0.0519241641990309 0  -1.665182340073309 -0.04335377636306686 0  1.661296443208884 0.01599192831537097 0  -0.7097995814477688 -0.0491294347682218 0  -0.902178898470008 0.7227731770959326 0  0.5552383206557431 -0.4914713947127417 0  0.05466300646904759 -1.295855972763899 0  -1.104184617304681 0.3108520640857351 0  -1.562139342708246 -0.634403261759945 0  0.1308880869144387 1.657373187053751 0  1.187004721588891 -0.05633147230764287 0  0.5636805818301363 -1.099683260739263 0  0.4980893945394241 1.044393428234773 0  -0.860658475730649 1.444834717184974 0  -0.5497263572094148 -1.114414733812823 0  -0.2600786315211885 -0.06920957174575178 0  -1.190572429610174 -0.1196353674156962 0  -1.305295749586271 -1.064092788620244 0  1.242328121057244 -1.134910985136612 0  0.5701890685039862 1.574261873029837 0  -0.8694127496972486 -1.459949799854307 0  0.7431739839318827 -1.498915948264772 0  -0.5835966402590966 -0.4772507147718651 0  0.9006011092337612 -0.8192982745955697 0  -0.201540990962388 -1.230830949968169 0  0.3265413791187102 -1.661133254779386 0  0.2418606064328793 -1.211944747010176 0  1.086488694988674 -0.4731624679139167 0  -1.403473848123524 -0.316420703660395 0  1.522705449661156 0.4487426169437733 0  1.079450411813987 0.3326248658694363 0  -1.375420648143066 0.9792157628111856 0  0.7883366024950661 1.154926177585051 0  -0.4044998129729882 0.5563925203296252 0  -0.4475614023074679 -0.6242593903433221 0  -0.4335663078370081 -0.1805324925300461 0  -0.0774873203
[...]
<PointData  Scalars="f_625-1"> 
<DataArray  type="Float64"  Name="f_625-1"  format="ascii">4.3204574270445284e-01  4.1967089418744569e-01  4.3130316622206444e-01  4.2838149535975656e-01  4.2082032784424722e-01  4.5591711669921420e-01  4.9251014637969226e-01  4.7535554836908983e-01  5.0316597704552402e-01  5.0962780231271920e-01  4.9744198440882864e-01  5.1836776550631447e-01  5.1588756518456669e-01  4.9793916738898725e-01  5.0327010637389913e-01  5.0366973699149553e-01  5.1424250271874661e-01  5.1275041038334956e-01  5.1277349464794031e-01  4.8920527540036773e-01  5.1111900322529547e-01  4.9990323332094083e-01  5.1329669357588203e-01  5.1804049314170308e-01  4.9452582503746356e-01  4.7486165698033128e-01  4.6809344016180571e-01  4.3269590031724814e-01  4.2180640868068014e-01  4.3624970884729047e-01  4.2667157652350268e-01  4.1759995912802927e-01  4.3510617930171874e-01  4.2566241232665258e-01  4.2777286101104534e-01  4.2652364701775364e-01  4.3224874960119875e-01  4.4195037867809617e-01  4.2756279528252195e-01  4.4181034525760665e-01  4.3110372105695166e-01  4.4404307958788169e-01  4.4395785140326005e-01  4.3010614248120110e-01  4.3772587958931447e-01  4.3556908345014550e-01  4.4380160460087070e-01  4.4276195640898919e-01  4.3154551875951025e-01  4.3473333971970268e-01  4.4544991817428425e-01  4.4299419820370001e-01  4.2624400204120905e-01  4.3889444311786863e-01  4.3755232798597526e-01  4.3363057122596887e-01  4.1845611282715467e-01  4.2472508725243957e-01  -3.3041433290052956e-02  -1.2576088361060469e-02  -2.1406069124805853e-02  -7.4243700286957981e-02  -6.0318294073338649e-02  -9.9761629212876384e-03  9.6033874031145397e-03  -1.5372992209887592e-02  1.3984714172570542e-02  -4.4306909489935497e-03  8.9830541678295860e-03  7.1545561118079135e-04  -5.0749508461977587e-02  1.4233116549431671e-02  -3.3372046879986492e-03  7.7752462759476156e-04  2.8167331547642310e-03  9.7463432292171446e-03  -4.1386851498020925e-02  6.4913236257235331e-03  -4.9193490575028864e-02  3.7246423869394404e-03  -8.9673646946498379e-03  -1.5404036964993021e-02  -1.2955207388266509e-02  -2.0528633267953809e-02  -1.8007561933826050e-02  -8.7681405485129316e-02  -2.4188925435885224e-02  -3.2054320906776727e-02  -3.2774865570246725e-02  -3.5034555111480251e-02  -8.6483375305054122e-02  -2.8808884094749829e-02  -7.9797394942028518e-02  -7.6854648988955540e-02  -7.8270528394549579e-02  -7.3295286996621398e-02  -7.2043844505844765e-02  -1.5614445058630374e-02  -6.6972962313128187e-02  -1.7471342189108729e-02  -7.7538681424193734e-02  -7.7888606065972005e-02  -2.8199433527693520e-02  -2.7210718205430900e-02  -2.6818666129861946e-02  -2.6743445922919232e-02  -1.5501952272508683e-02  -6.3445857293548485e-02  -1.2410897790961680e-02  -7.0053079680659436e-02  -2.2304037149026061e-02  -8.0284881650761183e-02  -2.8078405279768771e-02  -8.4496938789749870e-02  -2.3856007196382766e-02  -7.9278659563502718e-02  9.8034882446165350e-01  7.2619824492110421e-02  6.8959988985390464e-02  7.0683656915037738e-02  6.2037441401083450e-02  6.0214058123720778e-02  5.0128492993427198e-02  4.7065015165764071e-02  3.5923920710165459e-02  3.5836956298711135e-02  1.0431927963863306e+00  9.3807771034665954e-01  9.6418622107151697e-01  9.5274551316993250e-01  3.4052559784952488e-02  3.5524281499825429e-02  4.4843976165880317e-02  4.6257999245157472e-02  4.9598833520279259e-02  4.9028413158756452e-02  4.7519625822065745e-02  4.7599165778678079e-02  1.0059111740260156e+00  1.0215201009019270e+00  7.1372518996218423e-02  6.8006740290104756e-02  7.0883885450283735e-02  9.3688118492288042e-01  6.4104453236584980e-02  4.8261902633328170e-02  6.3612992040179298e-02  5.2779658382537585e-02  3.9898360892049484e-02  5.4858853473578766e-02  9.2358895569452470e-01  7.1160059225412381e-02  3.9808863492920732e-02  1.0532154758403562e+00  9.6238741317615539e-01  9.5955239584512109e-01  7.0039398420272861e-02  6.4791746767738273e-02  3.1829078687502732e-02  5.2985004807000337e-02  3.8936173869192146e-02  3.6118858704907435e-02  6.0892857545600788e-02  4.5372497866893617e-02  2.9852614595891325e-02  9.7267861418349977e-01  1.0637426232782559e+00  6.7313679035062260e-02  4.7041310739658053e-02  7.4654858756715417e-02  6.9046799275136544e-02  3.6449348656494115e-02  1.0085696011428118e+00  6.5823688747469550e-02  4.2024327207000452e-02  7.5566159307533562e-02  4.1327952708472247e-02  4.2249846756132331e-02  4.4010075121212626e-02  5.8916719049468859e-02  5.1722988717428392e-02  5.7611262786828127e-02  5.7749687117978662e-02  4.0335507049070421e-02  4.4647469807837861e-02  6.6945461739168377e-02  8.9386859310350830e-01  9.1898415677404277e-01  4.2565100426196330e-02  4.1021562992552545e-02  4.8649198256639797e-02  6.4629769129518136e-02  4.7930951146654979e-02  4.2944881961553300e-02  9.5693985375822888e-01  9.0916662585233987e-01  9.0217192290920456e-01  8.8934949939292618e-01  1.0584217084721157e+00  2.9912465642597020e-02  1.0085611678446262e+00  9.7867612930196024e-01  3.2230806696914256e-02  3.3415051731856660e-02  9.1484777239453530e-01  6.6641721863803391e-02  1.0060577477104919e+00  6.8630294825249086e-02  5.6344106225128428e-02  2.9697878678380304e-02  6.7575786837091992e-02  5.2616263757407113e-02  6.3219217557821783e-02  8.2567389074054282e-02  6.3085162575712339e-02  6.2008926370483872e-02  9.8130112169620465e-01  3.5324536465167471e-02  3.7817884992519084e-02  3.8865159850844155e-02  6.6706567667330047e-02  4.2374629361003717e-02  4.2746054634052968e-02  9.9618114056796059e-01  6.2135923096629263e-02  6.1402745857065004e-02  4.0017321152353548e-02  5.5186051410841569e-02  4.7008265151661684e-02  3.4029245009765750e-02  4.5440775999425198e-02  7.4115037138570955e-02  5.3346611375334960e-02  6.7513437259259623e-02  8.5689606372057836e-01  1.0235409453141604e+00  9.8422450116732674e-01  1.0548708555925057e+00  5.6823639882401737e-02  4.2145344229757541e-02  1.2632725090244637e-01  9.9756851208045172e-02  1.0315768462154289e+00  4.8782315479632729e-02  8.5802768632328275e-01  2.5131109919644293e-02  6.5353120250389682e-02  4.4917546476008603e-02  3.9699367264202166e-02  7.1910821328119851e-02  7.0155977401444372e-02  4.0483305127877720e-02  9.4646771844315714e-01  9.4326906972045288e-01  3.2454833359527091e-02  3.5315142795993411e-02  9.3837303518894088e-01  7.2543260423786698e-02  7.0445207854693534e-02  6.3750859494797224e-02  4.5075244363489225e-02  3.2048590855790773e-02  3.5937053618359138e-02  8.2989995930113761e-02  6.4530863096152122e-02  9.5470101938175667e-01  1.0332441626159923e+00  9.7778429313117254e-01  3.2117107235714669e-02  4.5476765380089448e-02  6.5029473994757295e-02  5.7451263274461831e-02  5.1766047801538706e-02  5.5135117905596824e-02  5.1516255153755644e-02  7.1709602895270216e-02  6.9817297629213224e-02  8.4795264185925878e-01  3.7479416406467660e-02  8.4835939697351048e-01  1.0327076457079618e+00  2.7830830821105816e-02  9.4140283332362740e-01  6.1920747062493217e-02  3.6628661176967947e-02  6.7216226013644631e-02  3.7906964030047549e-02  2.6929314300682870e-02  1.3728638344699551e-01  7.1513143645680607e-02  4.6923805049327486e-02  4.6981131806693117e-02  9.5761850564073447e-01  6.5163809333201927e-02  1.2522955329836627e-01  1.0329952056574976e+00  1.2773606901664938e-01  2.7249840353918205e-02  1.2126853770779929e-01  8.4038629671846832e-01  4.9173426338348078e-02  9.2310533881652956e-01  4.6748758289797715e-02  5.3944347352807565e-02  5.8857356477084677e-02  3.6636577906918461e-02  1.1027820983838647e-01  7.0696340332589661e-02  2.5948808886919021e-02  9.4166270000837993e-01  4.1935438563897899e-02  6.2642338407713535e-02  2.9713424472373434e-02  1.2728204959797257e-01  1.2723946510346951e-01  3.2432258719581927e-02  6.0528685859273179e-02  5.7237997131127628e-02  4.5683848568232856e-02  4.8110484096931576e-02  5.5336185845186285e-02  3.6913203587169895e-02  1.3676443952673228e-01  3.4987734184460627e-02  1.1469926304246759e-01  9.9528538054073601e-01  2.4614508150721953e-02  7.1936033073476069e-02  5.6590570790970518e-02  6.4483594903717398e-02  4.0778632327269096e-02  1.0705740815106524e-01  1.0305468406044824e+00  6.0425740551268418e-02  5.1726543007777480e-02  4.8291712038008090e-02  6.4399383519577580e-02  6.4405226312634567e-02  7.1829919503355100e-02  1.0033884048372277e+00  3.2461614928960936e-02  8.3340423507530781e-01  4.2599101324733372e-02  8.6485954840777068e-01  1.0151553120642007e+00  7.0410093781631461e-02  6.7404041760749545e-02  3.6736617948809946e-02  4.0823695388668105e-02  3.5220580740933961e-02  5.9217775253991710e-02  8.1880228472415562e-01  9.9131589587601363e-02  1.2595314257739548e-01  3.5807693826311118e-02  1.1867266917425498e-01  3.7601342208758597e-02  1.2019970218976435e-01  3.6717231110308501e-02  3.0831239470687308e-02  5.2545587504305991e-02  4.3494114171546222e-02  3.7673080695265072e-02  4.7018192324291275e-02  2.4921233673721257e-02  9.9190555601087460e-01  4.7948841930270256e-02  4.4409503873088889e-02  3.4117093272713221e-02  3.7417533235277738e-02  1.1794441215721185e-01  4.8218045775801785e-02  8.9427537267159374e-01  6.2052594696603264e-02  9.2742632736103237e-01  4.5922681893109212e-02  5.2300227217274078e-02  6.3156711649739669e-02  9.9901300563311668e-01  9.6502351188144719e-01  3.5182733359410773e-02  1.2989443976413262e-01  1.0122860574388555e-01  1.0542131437652506e-01  1.3482665378221620e-01  1.3378997706278806e-01  9.6600313738564747e-01  9.6730373656739621e-01  6.4218757346764646e-02  9.6663316321711656e-01  1.0419359634603662e+00  2.6603815339398245e-02  3.3627894748424890e-02  6.8536535443741872e-02  9.7193561015606855e-01  9.6298713871845953e-01  9.8890966049807072e-01  9.9878608856199225e-01  1.0199815599794486e+00  4.0088185699422046e-02  7.6906304379267765e-01  7.7550439842698216e-01  1.3147173454026476e-01  1.0473247337827281e+00  2.9453107371290366e-02  3.7198585900076062e-02  9.4860304907489879e-01  6.8817598945983827e-02  4.8183971792815132e-02  9.8820578449301799e-01  4.1292817396215604e-02  7.9366555292021121e-02  3.8656805988675595e-02  1.3223517469886858e-01  4.6917494128344436e-02  5.0546551585188046e-02  3.4014601874837798e-02  1.4270241586332807e-01  1.4232185267154024e-01  5.3038300364036721e-02  4.8620589180600610e-02  4.6738642686107203e-02  3.1997253370602989e-02  4.7508721259750003e-02  9.6726495558994852e-01  2.6432266707168552e-02  3.7704208273204108e-02  6.8044901464176050e-02  3.9827527281680798e-02  1.2562774946945687e-01  7.9020679681916051e-01  1.0331961825296607e-01  9.9776084949254007e-01  1.0549141838886615e+00  4.8560160486218931e-02  3.3574876874530250e-02  6.9756041192415172e-02  3.4505798395021742e-02  6.7615694674061699e-02  6.9071698418637431e-02  -8.4525573838606250e-03  9.4569979464159293e-01  9.2728160139069971e-01  8.7241276663853207e-01  9.4488370224997087e-01  7.7246034021564236e-01  9.2303307868345008e-01  3.5233870363115392e-02  3.0870689468379252e-02  5.3002073143835246e-02  1.0394912762550266e+00  1.5645856820519244e-01  3.6740362482132569e-02  4.5011356249365080e-02  5.3335895095334852e-02  4.4551359790962898e-02  3.7761819648024955e-02  6.3939538375444582e-02  4.9838064417314969e-02  4.6848940457885929e-02  9.4775013460157354e-01  3.5006195328484861e-02  9.3316607015771846e-01  5.9662067129229099e-02  4.2799434421697875e-02  4.6582336046854717e-02  1.5993042080561040e-01  1.4500477220323715e-01  1.5096653363326223e-01  7.9227559455854565e-02  9.0474320619480841e-01  4.6141484941039208e-02  3.7754548304710200e-02  5.8139996728506643e-02  2.6623670641664422e-03  2.9427533935081903e-02  7.7126923446558726e-01  7.5659094293975593e-01  7.1055817010482733e-02  4.5128894458841461e-02  4.8759128850111175e-02  4.5670153034760970e-02  6.2026393404929367e-02  6.1226140675064565e-02  9.2471033920014256e-01  4.4441405024392595e-02  7.5145969658340972e-01  6.9064895337006868e-02  3.3325720224926449e-02  4.7035639828855544e-02  4.7748267572743697e-02  3.7799756616271156e-02  3.7427724196191572e-02  3.3055568621056623e-02  4.5163931852260079e-02  9.2979639458086816e-01  7.1616427891886256e-02  3.4507727547024976e-02  1.0180553313485470e+00  7.8455146884464011e-01  2.8593015578125078e-02  2.3560786330498521e-02  1.1890842654594008e-01  3.9655280973392826e-02  4.1852462648885418e-02  5.0824017044299334e-02  5.1475841137144228e-02  7.4360122459867417e-01  2.4757350683058472e-02  1.0235257420475924e-02  6.4690372691448908e-02  2.4475551200017175e-02  4.7453418638519748e-02  9.4204101392979123e-01  9.2303950391446821e-01  9.6483119627612979e-01  5.8457597342658110e-02  9.3004846962657162e-01  2.3314842563360177e-02  4.4677081899096034e-02  3.5714409094099571e-02  1.1799862547521119e-01  2.4870717878220498e-03  4.6881021860713162e-02  1.0621660053200741e+00  6.2390396805979915e-02  1.4155913353308819e-01  5.3947658200332954e-02  4.6669725417629329e-02  2.6378524312598441e-02  5.1840255339148482e-02  1.3004489455823293e-01  6.6814247961367146e-02  7.7677312297391121e-01  1.0241401328713733e+00  9.0161449792343085e-01  3.8008426834748366e-02  3.6228559984579640e-02  2.2394520693254115e-02  1.5414566749966896e-01  1.4009431908155912e-01  2.7664968014881389e-02  9.7141368800142958e-01  6.6168060734315956e-02  1.2171404353669715e-01  5.8091866776533205e-02  2.6189821365435084e-02  1.5720256700789709e-01  1.5196041185329806e-01  1.2922433983059867e-01  5.9086281868922744e-02  6.3220222428847339e-02  2.2940664052629053e-02  3.3772993111469661e-02  6.9447756003918781e-02  5.9388337416845127e-02  3.4806438303324083e-02  2.1676359999429649e-02  6.5845084382575567e-02  6.4570992461665394e-02  8.1942790065414606e-01  3.0256851258863137e-02  1.0221354582424981e-01  1.0248332880508493e+00  9.7488876065891450e-01  3.0926979901795684e-02  6.9766340553345976e-02  7.3739083089106316e-01  7.5247834372104055e-02  4.6176027790635274e-02  4.6826037419255478e-02  3.2406756070594518e-02  3.7948366618675053e-02  7.1467860007977099e-02  7.2702641437412258e-03  5.9883014620606106e-02  9.4941515308292312e-01  3.5541937156287048e-02  6.8830381423041209e-02  5.3824816997384416e-02  9.9479326840054783e-01  4.8116478016040264e-02  3.6806537916532690e-02  1.3098193223332782e-01  4.8926564727263880e-02  6.0838717461676094e-02  1.0268291868143602e+00  1.7141682047173021e-01  5.7225401230726336e-02  1.7454236740685217e-01  8.0146947607367708e-02  7.3703915429242720e-02  3.6412914365115533e-02  3.9241434303672496e-02  8.0214201818664989e-03  7.2345236480232583e-02  3.9305629209486929e-02  1.4963211200968886e-02  3.5598010048378863e-02  4.7472546038361277e-02  3.2095919306904253e-02  3.3320366433157431e-02  4.1523246243728273e-02  7.2579957271022760e-02  5.5282308909030256e-02  5.7451840054185063e-02  6.0791811366805677e-02  1.6796657427277961e-01  8.8965440968440190e-01  4.3973167758332009e-02  5.1232145733446997e-02  5.8532247025949107e-02  4.3081544546347258e-02  3.6055050186314982e-02  4.7742578104937337e-02  5.5516887842155159e-02  6.9740087014402583e-02  8.0446373169028518e-01  9.8430745588469293e-01  4.1279104741969358e-02  5.6135276260233735e-02  7.0270575623173781e-01  1.0173695110595464e+00  8.7947882976245229e-01  7.9386711993272385e-01  3.3645946728772171e-02  4.5170501595328053e-02  5.0393506135568859e-02  4.1233398280449682e-02  8.7299542615514747e-01  1.4483070544891824e-01  5.4246321258559285e-02  1.6409935812085236e-01  3.6652125385536541e-02  6.5925426173132060e-02  9.4548667616259408e-01  9.7278158148029581e-01  4.5238816882722126e-02  2.0626204444782605e-02  1.6678460525466668e-01  2.8926277710306501e-02  1.0837315299354305e-02  4.2471603676149744e-02  4.3565461227412734e-02  6.9425453265196821e-02  3.4410972059865708e-02  4.6476065324809850e-02  4.5968314144120864e-02  2.9469392072051299e-02  1.0026154776170635e+00  7.1453346435091422e-02  7.2085804898769326e-02  3.2976017711478831e-02  2.1871538546691365e-02  3.3870105736074678e-02  9.5152778568457375e-01  6.2961479577606991e-02  5.8771915810074807e-02  5.6911502027583216e-02  8.4324266540752513e-01  1.0465206474600819e+00  7.2696024428502190e-02  9.5625425803709985e-01  7.3090271859453576e-02  7.2289818290563204e-02  7.2757342583362999e-02  5.0349420178433427e-02  7.1020218757954856e-01  1.0230508235401559e+00  7.0117377909572720e-01  4.0220953980381093e-02  3.4938895193313134e-02  8.8754876308186703e-01  6.8777590789825382e-01  6.8504318999082089e-02  8.1736541977426885e-02  4.6348590504457797e-02  3.6007717318116590e-02  4.3735952053479292e-02  9.4553319185533191e-01  3.3891627217956848e-02  8.8821330071816873e-01  1.8749284008977515e-01  5.0290121528620127e-02  1.1704059982501907e-02  3.7533869847941596e-02  3.9873277710988635e-02  4.7264033934517842e-02  4.8318358103688695e-02  9.7722063860292996e-01  9.4040408947098997e-01  5.8141165138549597e-02  9.8620004220716651e-01  -4.1318428524053661e-03  1.9913863755417295e-02  2.4383566706520490e-02  5.3278585339009430e-03  1.7627493139681573e-02  2.8494434563043090e-02  1.6165282353268948e-02  2.7091390366952767e-02  4.6417540459755623e-02  2.2916458007720953e-02  1.9704368020371149e-02  1.9120739882009314e-02  9.1137567814319666e-03  2.7263375119953609e-02  -6.5379675083891975e-03  -1.6057829694483272e-03  5.0163392716395441e-03  1.6205882973113119e-02  1.2538243294509475e-02  4.0889972625213558e-02  2.3833914854669999e-02  2.3051678367047815e-02  2.4230491208158803e-02  2.4541129210401337e-02  5.1154508163253752e-02  2.6598715557472868e-02  2.2547071510642520e-02  1.7070286062120441e-02  1.4395247332828764e-02  1.8679943843423509e-02  1.6102253285866799e-02  2.4544768369514178e-02  1.8857719980353235e-02  7.5289804782277415e-03  1.5318588315675216e-02  1.3726725841576144e-02  6.2817200964466552e-02  4.3633572765083554e-02  5.7187761785319376e-02  3.4785589259649467e-02  7.0101690128171334e-01  1.0688638850688084e+00  2.8505259318987290e-02  5.1061796355910329e-02  </DataArray> 
</PointData> 
</Piece>
</UnstructuredGrid>
</VTKFile>