<?xml version="1.0"?>
<VTKFile type="UnstructuredGrid"  version="0.1"  >
<UnstructuredGrid>
<Piece  NumberOfPoints="678" NumberOfCells="1275">
<Points>
<DataArray  type="Float64"  NumberOfComponents="3"  format="ascii">-0.9218406450055092 -0.1092786772599211 0  -0.9161097921449464 -0.2088527638708058 0  -0.8998662434707552 -0.3069105525790035 0  -0.8729412660061222 -0.4031100274619011 0  -0.8357469485985818 -0.4957506196987564 0  -0.7889540146484131 -0.5835911709517033 0  -0.7329989681501881 -0.6658498169717548 0  -0.6683227698350961 -0.7418280441541586 0  -0.5957815919573061 -0.8103127741169971 0  -0.516628663113213 -0.8704434981196185 0  -0.4310647175054351 -0.9217882568846022 0  -0.3404461996241389 -0.9635941560232053 0  -0.2461966364949354 -0.9952610492978664 0  -0.148940286222015 -1.016579647513951 0  -0.04963896514932824 -1.027310908619244 0  0.04981832824475589 -1.027431185375974 0  0.148854779097764 -1.016746564413239 0  0.2462837489220971 -0.9953709706745413 0  0.3408891314524409 -0.9635185601398041 0  0.4308589706128066 -0.9217936861164626 0  0.5164985394018733 -0.8704379429229794 0  0.5961079075284819 -0.8101188632056585 0  0.6683887601312479 -0.7417183792437765 0  0.7329204592046611 -0.6660098205316235 0  0.7890043920613544 -0.5836752018147993 0  0.8360220124897693 -0.4954284107210356 0  0.8730407488608254 -0.4030830045164603 0  0.8998246709236918 -0.3071211935103301 0  0.9161260402347224 -0.2084434302018029 0  0.9216815974189368 -0.1087496916486217 0  0.9166115921535234 -0.009219573993664342 0  0.9007126942436616 0.08933120121804927 0  0.8743423354005688 0.1854535527817847 0  0.8376118416481837 0.2783119481047807 0  0.791005227229259 0.3668449084491607 0  0.7350028938493953 0.4498526743813249 0  0.6704925401542264 0.5260133797838715 0  0.5979475274922207 0.5949891832294496 0  0.5181982329010418 0.6557257722970476 0  0.4325242963432535 0.7073130692834996 0  0.3418986095287125 0.7494002149033 0  0.2470095170856386 0.7814981238119065 0  0.1493893149110156 0.8029290815399099 0  0.0501288118051011 0.8137968286920848 0  -0.0499366146660276 0.8137656337122439 0  -0.149622174585907 0.8029406197804357 0  -0.2469200504341867 0.7814500285742264 0  -0.3419957106671381 0.7493986482878114 0  -0.4328845233432891 0.7072696548923685 0  -0.5183684208137609 0.6556373890732824 0  -0.5976113847261234 0.5951757812130077 0  -0.6704216861818757 0.5259581001780648 0  -0.7349291164382071 0.4497005387889542 0  -0.7907156065303255 0.3672029388546633 0  -0.8375206560158325 0.2786989310790261 0  -0.8744527980021956 0.1853665469402253 0  -0.9008754142796516 0.089235482526559 0  -0.9167241390920396 -0.009321448217803294 0  -1.817109811162677 0.1001427841185751 0  -1.817109349485339 -0.1001436606531278 0  -1.795032793503235 -0.2996303849286963 0  -1.751208314321006 -0.4951828577867624 0  -1.686101007587884 -0.6848370250808871 0  -1.600530367544555 -0.8661633177602733 0  -1.495532561310319 -1.036977604539415 0  -1.372370029836154 -1.195213781905244 0  -1.232632032577807 -1.338857174348909 0  -1.07778526853212 -1.466377199107913 0  -0.9099294888610371 -1.576043186813568 0  -0.7310271588392177 -1.666578478654514 0  -0.5431699274797378 -1.736918603751395 0  -0.3488886483348336 -1.786115737157101 0  -0.1503751043813712 -1.813644799769037 0  0.05014398567108979 -1.819163716998532 0  0.2499670845438861 -1.802609495569517 0  0.4468421019546832 -1.764157311660529 0  0.6381043210610626 -1.704335219044973 0  0.8217350793066687 -1.623789009967278 0  0.9953758818966089 -1.523536490427445 0  1.156936571783528 -1.404790540072372 0  1.304452561917163 -1.268992499889143 0  1.436141584622704 -1.117779862356388 0  1.550333651152628 -0.9530941877640712 0  1.645849963843846 -0.7765944685924104 0  1.721265789752066 -0.5909113996867404 0  1.775800902152546 -0.3980607100667099 0  1.8088101235245 -0.2001982097950596 0  1.819866939640378 0.0001102744525365656 0  1.808833756983903 0.2000913749058664 0  1.77580097022836 0.3980597665679006 0  1.721265934081282 0.590910808816593 0  1.645850655981867 0.7765949048915843 0  1.550373053211907 0.9530091982336599 0  1.436124459165113 1.117781582517564 0  1.304386473488403 1.269054458109046 0  1.156935510221847 1.404789175679706 0  0.9954510495516248 1.523482600580202 0  0.8217253445172236 1.623772755606799 0  0.6380271405907273 1.704359596812878 0  0.4467636159883583 1.764181899144862 0  0.2499661297136532 1.802625467843771 0  0.05013378440700231 1.819181739734853 0  -0.1501914689791172 1.813660198554272 0  -0.348979510225098 1.786094484367413 0  -0.5432466547012215 1.736899503264725 0  -0.7310468298651718 1.666585357931628 0  -0.9098522752265136 1.576099244920299 0  -1.077782464460627 1.46637554529069 0  -1.232631762347233 1.338858072319153 0  -1.372377111658196 1.195204268908869 0  -1.495475531249502 1.037050677227268 0  -1.600570678053459 0.866079258619994 0  -1.686096223864388 0.6848471739919076 0  -1.751208625440085 0.4951813264860424 0  -1.795032160887572 0.2996314173594681 0  3.987886371612067e-05 -0.1054560286655382 0  -0.1817208003702045 1.308904524503449 0  0.3181663829139803 1.279345884177472 0  -0.7315099576043923 1.107891124236306 0  0.7710866506411096 1.082549852118232 0  -1.146694035155718 0.7036030415885376 0  1.158119811056253 0.6773548825703523 0  -1.33293784742933 0.2622232305035084 0  -0.04983846020457543 -0.5647538805072482 0  -0.4282422330333211 -0.2771273559421155 0  0.3711167675287558 -0.3788361167557061 0  -0.3177281941095906 0.228895379462997 0  0.1476082248909225 0.3314592429631256 0  1.336505902244194 0.2510307393432562 0  1.363631274769932 -0.2289023483531879 0  -1.351144995311844 -0.3042258572518792 0  1.230863012322294 -0.6675350817265873 0  -1.189642340138951 -0.7386542198499817 0  -0.9154734106145764 -1.07449947929941 0  0.9574566665920942 -1.041642845738502 0  0.5714414350861406 -1.304304581047852 0  -0.4996128756328975 -1.33618642823268 0  0.1423708852269555 -1.417899292888358 0  0.4833785573363458 0.0276148886948599 0  -0.5206520965027851 1.389718209622809 0  -0.1743012294747856 -1.34326088034911 0  -1.067589893608157 1.0381662374427 0  0.6264741256650399 1.369818966656792 0  1.143909966692113 0.9953875869231006 0  -1.503131923504286 -0.01534439347408487 0  0.1260816668129115 1.521199228120436 0  -0.3663289597849277 -0.5891629188066159 0  -0.5984585770102767 -0.009089656137710213 0  -0.1305996545095509 0.4859306651571381 0  0.2582329575305497 -0.6656671624706691 0  -0.4064239351956863 1.070702105779086 0  -1.209811515704564 -0.04761167866832377 0  -0.841685095637371 0.8052648306893295 0  1.425499489268611 0.5393251152269822 0  0.8597385617813786 0.7790743648669 0  0.448001123800895 0.3252616718222374 0  -1.411822750290488 0.5560771858060619 0  1.524361795362623 0.02145780411386913 0  2.118905939901676e-05 1.091750156679227 0  0.5045888884258948 0.9824099050796847 0  0.6267922217990765 -0.2815263283974834 0  -1.09054664776111 0.4192252373771176 0  -0.3378831265986164 -0.03159550884267273 0  1.455888641787197 -0.4956732374987236 0  1.094762678772335 0.3997474950435229 0  -1.423988634585384 -0.5779545855158595 0  -0.3080454749822512 1.533494277346162 0  0.2671214782705388 -0.1310018951966415 0  0.2514743564372492 1.034023626117677 0  0.9969523436010306 1.205441463941444 0  -0.8651252155845051 -1.325113684872311 0  0.4178412176411491 1.513342103115442 0  -0.8664258528366714 1.325527085450093 0  -0.6017939500107814 0.8918097692841245 0  1.176707514280272 -0.04465187612802472 0  1.218761311636743 -0.9451315254680438 0  -0.561833777440146 0.2730104899213678 0  -1.178011013988529 -1.008373346386798 0  -0.06088893543036948 -1.574080770637847 0  -0.6466669318265018 -1.109105963456066 0  1.135020349588735 -0.4235631081634451 0  0.982018461230332 -0.7731828971657631 0  -1.13665032119793 -0.4725196545160494 0  0.8464065414200406 -1.29289654452919 0  -1.357217299598344 0.8336855589542709 0  0.2545785037954336 0.1124891590304067 0  1.334059933341747 0.8456798783781553 0  -1.55230495587503 0.3620873334987504 0  -0.2215339307265825 -0.3977784830995887 0  -0.07888759894937537 0.2523541067048023 0  0.3947964516494444 -1.503467777818672 0  -0.3420427992989631 -1.533875424143561 0  1.576765340380298 0.2551853957923929 0  -0.1943143999425383 -0.7586904831310944 0  -0.5754525398191694 -0.4692318325179221 0  -0.6669973541332427 -0.2409974211600763 0  0.04886950147556217 -0.7853923767924441 0  -0.4030287279655119 0.4491656213884558 0  0.301138288548784 0.5109230125233296 0  0.6933187580179045 -1.069300991293661 0  0.5264554981269939 -0.5547208279162001 0  0.002826866741442694 -0.338052255040006 0  -1.120080599163535 0.1655589513735788 0  -0.9430693281611352 -0.8179073732608939 0  -0.9263659336184334 0.5861396038206113 0  1.121068821856268 0.1746203777215649 0  0.9557463375607522 0.5758797074858785 0  0.3243887090949659 -1.239270129750796 0  1.573583741036209 -0.3060748532647221 0  0.09413195677916308 1.29734576026284 0  -1.573408334890157 -0.2355769381047398 0  0.6591616795642625 0.154614195842714 0  0.6857817651978048 -0.06682234985108579 0  -0.09152182009432333 1.508438547435015 0  0.08013084966200122 0.5821337618979873 0  -1.132030620972519 -0.2531701537900677 0  -1.381109483868952 -0.8496283785130522 0  1.442436899683881 -0.7096863360665192 0  -0.3328418417853382 -1.195299838306 0  0.1446056586687231 -0.490749189742577 0  1.142775436078361 -1.138685909413096 0  0.8124662458193029 -0.8916530055921366 0  -0.7595602691501533 -0.937020605446735 0  -1.086034025207791 -1.193548899188091 0  0.6890858298962445 0.8927271537578145 0  -0.1995232192096782 1.011993791347258 0  0.5976196299864445 -1.506204724674716 0  0.4866716258294705 -1.117857588931373 0  0.8456723983789227 1.364305196393632 0  0.5098733016224523 1.193686545587474 0  -0.6866674371197643 -1.452388656651725 0  0.140170530852815 -1.626639983945281 0  0.01611838383019869 -1.241393896038407 0  -0.9971446975058206 -0.6216433927025921 0  0.461911609841611 -0.1698769281245265 0  -0.1833516876469714 0.08766352286237285 0  -0.1949947354628028 -0.1875618
[...]
<PointData  Scalars="f_167-1"> 
<DataArray  type="Float64"  Name="f_167-1"  format="ascii">5.3045619211205142e-01  5.4632669948330392e-01  5.3768162471697223e-01  5.4472809097671937e-01  5.4168114602359585e-01  5.4808765769289081e-01  5.5364624621304492e-01  5.4010322496941110e-01  5.3849034051446232e-01  5.5679455507006648e-01  5.3157357002586225e-01  5.5484264354014923e-01  5.3506207130794425e-01  5.3126612017375918e-01  5.3677819790970938e-01  5.4253359484060659e-01  5.5520754727746968e-01  5.3114519123425219e-01  5.4810280800285227e-01  5.3591349998110194e-01  5.4623526194654426e-01  5.5423489066118459e-01  5.3914181971107056e-01  5.5136867198336648e-01  5.4344482235233094e-01  5.4069602722802323e-01  5.5135836068489441e-01  5.3885430318644900e-01  5.2153559784917392e-01  5.4562483934415285e-01  5.3120620331272483e-01  5.2836153415717968e-01  5.2914795755251209e-01  5.2629635802663088e-01  5.2175362300350914e-01  5.0759717009006944e-01  5.2155569314888572e-01  5.1753509576926593e-01  5.2867325047521663e-01  5.2241287184173513e-01  5.2104470251147039e-01  5.3108260956156561e-01  5.1524050998642101e-01  5.3134017897216168e-01  5.1578691735087556e-01  5.1621217618670379e-01  5.1080310916041760e-01  5.2175344809868973e-01  5.3074272695412394e-01  5.1268190476280529e-01  5.1635257432160719e-01  5.1444064483206597e-01  5.2421871565595946e-01  5.1761195123788650e-01  5.2170206482462378e-01  5.1602585249203303e-01  5.3944570145678294e-01  5.2336990513454162e-01  1.1951373213633225e-02  6.0439320667517232e-03  1.0855815672569952e-02  2.6523164542222869e-02  1.6903270355289296e-02  1.1803167279742224e-02  1.8770796555446195e-02  1.8550838510540037e-02  7.6038210046728448e-03  -1.1807481190876977e-02  -1.2602457393530022e-02  -6.5779940106229038e-03  -1.1554388488670712e-03  9.9717900481783341e-03  6.3570486284675678e-04  -6.9048740846231610e-02  -9.1409495403970038e-03  -1.0735117888991520e-03  9.7639485144333949e-03  1.6148679347503442e-02  9.1163813467969122e-03  1.7099863159824966e-02  1.2015350898914898e-02  1.3086569564658737e-02  2.0897064983940762e-02  8.5835093559229435e-03  1.7024144874721588e-02  1.1627934933267057e-02  -5.1517448545074007e-02  9.5802049046040793e-03  1.0744340214599626e-02  1.0508891684833811e-02  1.7555849728826733e-02  2.2886301825808981e-02  -1.0699501249491610e-02  1.3370276977264161e-02  2.2617283924808544e-02  2.0378786469521765e-02  1.8068801805704131e-02  -5.8655027168024544e-02  1.8295276612429405e-02  2.2978493552990656e-02  3.2707790880197922e-02  2.5871357796063064e-02  2.1065788593013415e-02  1.7544139079870680e-02  2.5259261094857492e-02  2.4261957324887659e-02  1.6927410880517305e-02  -5.3512166827278190e-02  1.6806775569929169e-02  2.0145444397238081e-02  1.3177575973864448e-02  1.3725443456510115e-02  2.0255441662209855e-02  1.7719979475685241e-02  1.1520308749385449e-02  1.1461703455942496e+00  7.0744752619888857e-02  7.0935431961716158e-02  6.9126967266676498e-02  7.0007408062844778e-02  6.5148313372861130e-02  6.6336651972103602e-02  6.5710816067487965e-02  1.1625019905795004e+00  1.1551592437369436e+00  1.1591432429433901e+00  1.1299271647352183e+00  1.1251617021567175e+00  6.5109617609717563e-02  6.5976568331505489e-02  6.4977898201510953e-02  6.5359216349058807e-02  6.3315961818639341e-02  6.1021843088288105e-02  6.0885247249335986e-02  5.7471513928284874e-02  5.8197700344898171e-02  5.5810888994051497e-02  1.1380461590006858e+00  6.9247994768448035e-02  6.3153780475618218e-02  6.6374699225457662e-02  6.8746910427177135e-02  6.5033311860639528e-02  6.3896529698697205e-02  6.8780355971544263e-02  1.1565285115721575e+00  1.1305740130364625e+00  1.1101983430239364e+00  1.1586078669280646e+00  7.3438074616568094e-02  7.5134601125027192e-02  6.9586025745098479e-02  6.3131158743110413e-02  6.3883712556454378e-02  1.1098494863703006e+00  6.3892471819452845e-02  6.2814025164210280e-02  7.8515456185375421e-02  7.4886767861066419e-02  1.1405328774763952e+00  8.4243604259861743e-02  1.1427024292017647e+00  6.2560873757057392e-02  8.1009463727410025e-02  6.1338429330847558e-02  6.7405205377183877e-02  1.1471591411628763e+00  7.8804569837786984e-02  6.4909610570439855e-02  5.3757106435561558e-02  6.6777007057658253e-02  6.4764293221864305e-02  7.3571587016176332e-02  7.6942622991060416e-02  5.9562695121424779e-02  1.0867578993737559e+00  5.8978712419613805e-02  5.1584819727993482e-02  7.3481558324323182e-02  7.5220165078813989e-02  7.3866626739643892e-02  8.7795609589463489e-02  5.5908004793614310e-02  6.1919085824055475e-02  1.1350135777394132e+00  6.1507674503859272e-02  6.0982271401780253e-02  1.1599876504735624e+00  1.1293516401796104e+00  5.3323440797957151e-02  5.2009325497573394e-02  6.0287322616026061e-02  1.1379181682943242e+00  1.1368469053257577e+00  1.1197221589148323e+00  1.1447806183680824e+00  1.0907562140528710e+00  1.0879102046927840e+00  7.9362689859664659e-02  1.1249704389453439e+00  1.1567458851810357e+00  7.6910978503525879e-02  8.9447966582077904e-02  9.3275045555964969e-02  7.6155622636170220e-02  7.8340504741487904e-02  8.1319433642816977e-02  6.0543665245284276e-02  7.1798604977406033e-02  6.0115924122029846e-02  1.0750133085289830e+00  1.1099095689380354e+00  6.9108143495372601e-02  1.0745169049020531e+00  8.4386337358867802e-02  5.7350341618648409e-02  5.8288019824666915e-02  8.0614607731304744e-02  1.1633369889556340e+00  5.5050944555783542e-02  9.4945887588163802e-02  8.9608234693520541e-02  5.5242814855067886e-02  8.2007912201122662e-02  9.7521226654539467e-02  5.0636791522879358e-02  8.3519667517598623e-02  6.4715622551290986e-02  7.0237358123955415e-02  5.2070236894296705e-02  4.9211253886676826e-02  9.2019349520273880e-02  8.7970662572107589e-02  1.1433617107297809e+00  1.1370767650050264e+00  1.1503090954276372e+00  9.1145654081557587e-02  6.8661175362754220e-02  1.5094100438037888e-01  1.1555929243072836e+00  5.9541748604202700e-02  5.8048503528185295e-02  5.6959731175589397e-02  1.1350377478577798e+00  1.1372176508511347e+00  6.2463738662612900e-02  6.2263776290699215e-02  5.8263133098605514e-02  5.9395674226276715e-02  5.7077724077516101e-02  6.6341047112919618e-02  6.6567042103573143e-02  5.1544741013657441e-02  6.9082008006654039e-02  6.4830492293305994e-02  6.6031788643232406e-02  7.1162551386213205e-02  7.0637900958722577e-02  6.2381003054925693e-02  6.7874449822105665e-02  6.7600163715391584e-02  6.5172737143760900e-02  5.7917271990801739e-02  5.9120686979459221e-02  6.3445425702178496e-02  5.9581346453546881e-02  4.7963167492876636e-02  1.1417578859371700e+00  1.0792513608250556e+00  1.0797244722359645e+00  1.0837833998372703e+00  1.0558548522564635e+00  1.0292534170602665e+00  5.5745623162180902e-02  5.6707814048312370e-02  6.1866810915403671e-02  6.2939939496446620e-02  5.6451037540675604e-02  4.6980181526135791e-02  6.5508852091645933e-02  4.9265862415726211e-02  5.5438668708932125e-02  5.7426583373031095e-02  1.0717672986861424e+00  1.0687675647347181e+00  1.5145915734923304e-01  6.7463806975354076e-02  7.1126233441211523e-02  1.5209966256684765e-01  6.6928191776961715e-02  7.0027420284651559e-02  5.2017725349826648e-02  5.5991069258095216e-02  1.6530810866088611e-01  6.6803881891166692e-02  6.4383041219063450e-02  1.0313668889759835e+00  5.8056316272218925e-02  6.2476525888036705e-02  5.6081926865477014e-02  6.6529735163276482e-02  6.9482852988177163e-02  7.0349090580097556e-02  1.3353494290139506e-01  6.3939171961605701e-02  1.1195349681721005e+00  1.1656895308805526e+00  1.1599460788217317e+00  1.1472817076613626e+00  1.1224334307372401e+00  5.5434561703139436e-02  5.1237709297981285e-02  5.8114513386417203e-02  5.9498862052114257e-02  1.4838338374222226e-01  1.0730727931580688e+00  1.2490083008829322e-01  6.0744822764041848e-02  1.0416752704537866e+00  6.5092183331602063e-02  6.2020228282941549e-02  1.1672098462472569e+00  6.2577529911673965e-02  9.8859400911736373e-01  1.1628992160506122e+00  7.9607424671771385e-02  6.3668977041648131e-02  7.1225609859134481e-02  1.4537535107825533e-01  1.0331196496353812e+00  1.3596131555482932e-01  7.1874104433664571e-02  1.0680604964987483e+00  5.9575379780760614e-02  6.3655748412212831e-02  1.4656033641656779e-01  6.5302718910235036e-02  5.6746590088967978e-02  6.4080925130252195e-02  1.1231735332194237e+00  1.1191665780098787e+00  5.7218093694948534e-02  6.0957112913440581e-02  1.0384883780970064e+00  4.7913166307536795e-02  6.6187687972633122e-02  1.4045397254445779e-01  1.4484910915962373e-01  6.8940095286183264e-02  6.4045411861384974e-02  6.4425240063860190e-02  6.9216587192149001e-02  6.9826705757965943e-02  1.5541777974739093e-01  5.3374079256031270e-02  1.1573082402444852e+00  6.7864745387072406e-02  6.3189576464621089e-02  6.4013422108537985e-02  6.9261084063822920e-02  6.1848974651740933e-02  6.6313716329780753e-02  1.1287829798816484e+00  6.1385491252478802e-02  1.6154300098799540e-01  6.5169897373396485e-02  1.1322849662183259e+00  5.3237011406123025e-02  4.7945656726879525e-02  1.5914119898984119e-01  5.3554561898685168e-02  1.6452929739240901e-01  6.9997835634735217e-02  6.9299611112501755e-02  6.1652764050225566e-02  5.6103538099268151e-02  6.4829768226771056e-02  1.7098957958101935e-01  1.1515279921524666e+00  1.5247926064597336e-01  7.1122245172362569e-02  5.3491013815537891e-02  5.7852247066267022e-02  5.6249799541842366e-02  1.0002346911377260e+00  2.5995942138409431e-02  1.6441632069443982e-01  6.4521803917997778e-02  9.8625385950545996e-01  1.1436885267052224e+00  6.9300729464005548e-02  6.3756628938407514e-02  1.6869596331996750e-01  6.6321144384546907e-02  9.7820568072473191e-01  5.9486324848534507e-02  6.0777953154327567e-02  1.5674228271889673e-01  6.5016253072220795e-02  5.0821820501003895e-02  5.7683516568015153e-02  1.7219482911726106e-02  6.1051786363893100e-02  1.7596090421155694e-01  4.6504023305647610e-02  1.1532456398632538e+00  1.1429851803035280e+00  5.6801729209823612e-02  1.7059627375987749e-01  6.5630468657728605e-02  7.2611459485301427e-02  4.9326546148414752e-02  1.5421706725812356e-01  2.8028126256635342e-02  6.7773076765790627e-02  9.5475997578201688e-01  1.6754519662939449e-01  6.0867394824782255e-02  1.0045867822001751e+00  1.1467126277247957e+00  6.8831535079984588e-02  6.2457618450933380e-02  1.5966044011050720e-01  6.1875525977501698e-02  1.1365382241610280e+00  1.1427699692459192e+00  1.1494284501438654e+00  1.7763618153958374e-01  1.5825143076742423e-01  1.7224198683658079e-01  9.4943296080306572e-01  6.7223688022698985e-02  1.7671372447033651e-01  9.4570458986518957e-01  3.8957390456518345e-02  1.1175237583884472e+00  6.7402829288287780e-02  1.7942681346848338e-01  7.6928680809228989e-02  2.8650010575686311e-02  6.6507174857729459e-02  3.9535678286274474e-02  4.7234441678907231e-02  1.7998256997173281e-01  6.4237550187285275e-02  7.0512519047157302e-02  5.4213487117462718e-02  6.6220492023406310e-02  5.5887847399308577e-02  5.9506249048455369e-02  4.8727280723542293e-02  4.6871937647355588e-02  6.8391112797754880e-02  4.6966038626035274e-02  5.7573140271042510e-02  6.0057568208655092e-02  6.5127055148272592e-02  1.5871507794154271e-01  1.1558346878545935e+00  4.9345261834131085e-02  7.0477699092222762e-02  1.7400392223144109e-01  9.6748854005900953e-01  9.6305769718166345e-01  9.4310680894961030e-01  9.4028148248501753e-01  6.2644723267666499e-02  5.6513590592346320e-02  1.8252389454907864e-01  6.3943396416340614e-02  1.1516823496783990e+00  6.8227348423770554e-02  1.1287536972945005e+00  4.4233524089839056e-02  1.1242552109772688e+00  9.2741983611005563e-01  2.4267049800463538e-02  6.8402005348410302e-02  5.7660654765151004e-02  1.1453017360606683e+00  1.1530256880274603e+00  1.7606537167067277e-01  2.4463404108006615e-02  1.1416612236984369e+00  5.4724515283909113e-02  6.0096549778821763e-02  1.1646785045752079e+00  5.6055278405901798e-02  5.6037622851051565e-02  5.9865773754990408e-02  6.4522343743648652e-02  5.4253039811237087e-02  7.0389148594822412e-02  1.1349407115436354e+00  1.1411752187204001e+00  8.7041357288594490e-01  6.0991510950595310e-02  6.0149429877878378e-02  1.1335324961972726e+00  1.1478809582440783e+00  5.8949390429407035e-02  5.2676144825017930e-02  5.2346211245811680e-02  6.3677815618964323e-02  6.5932189954701445e-02  4.9693137923057858e-02  6.3494736182473602e-02  1.1634941552783380e+00  1.1639901247714417e+00  1.1284167706332946e+00  1.1238027360668681e+00  1.1284400473196095e+00  6.3394319598422261e-02  6.5640545311737075e-02  4.5195935035314425e-02  5.4736783972726806e-02  6.2114996938728052e-02  6.4640570191970434e-02  5.4464663008496832e-02  6.6543557048087787e-02  1.1578790475857699e+00  1.0878068900051268e+00  7.2213584181587617e-02  1.1216468494445091e+00  6.8600890387811933e-02  4.8652930649473215e-02  1.0875583512306666e+00  6.8865141341151084e-02  1.6154132283484354e-01  1.8726444865146205e-01  1.9368291379321123e-01  1.1553538702419994e+00  1.1616520581621568e+00  9.4509005803236446e-01  4.7609329221827916e-02  9.0194210243900153e-01  1.7725177637750730e-01  1.1612261872213530e+00  1.1209917229496216e+00  7.1374380152105579e-02  1.1604243438267043e+00  1.2846611673566311e-01  5.4861580908271930e-02  1.1099750802759911e+00  1.8858452356356994e-01  6.1120183525120365e-02  5.8206412186321804e-02  6.7079937806751019e-02  6.6325960712640145e-02  6.1431895374501243e-02  6.8516120259969629e-02  8.7944675254797544e-01  1.1594842829306389e+00  7.0216339164983044e-02  6.4970540052189454e-02  1.1524756763237434e+00  5.7276420171172800e-02  7.0468121539751530e-02  3.9990882863368396e-02  6.0013969847373116e-02  6.2366158782397776e-02  9.1321738932502272e-01  5.6386759743976202e-02  7.1184557776195978e-02  6.5159620988901809e-02  6.7788119474210887e-02  6.9359846909380976e-02  7.4191067490024451e-02  1.1236552195492824e+00  1.1352518460316736e+00  6.4490120504582804e-02  9.1455979214410943e-01  1.9443155077742799e-01  6.4233780444763702e-02  5.3506673522800849e-02  9.7703415495019458e-02  7.1253091771049187e-02  8.6659392765614962e-01  6.1233304533344080e-02  6.7253434171519105e-02  6.6372373158241002e-02  5.4285605433436440e-02  5.0841904215569507e-02  5.2379162479417755e-02  6.4305716466418708e-02  2.1468952304759045e-01  1.3320973442949249e-01  5.4919315871495483e-02  5.5642070885345132e-02  6.6314210945168636e-02  5.7621504466727917e-02  6.4877951617667240e-02  8.9608521802195240e-01  6.8269040696295094e-02  6.9970393078505402e-02  7.2156260449185466e-02  1.9960871792525645e-01  6.7137532324371210e-02  5.5330109754445557e-02  1.1591962396066193e+00  4.2689000951661206e-02  4.9945680829743162e-02  4.6007227867543278e-02  6.1924983662891099e-02  7.3889308320465710e-02  5.6477807819356816e-02  1.1473146729872101e+00  2.2989748647594319e-01  9.1442836857799248e-02  6.3192772569714173e-02  6.1699917492324438e-02  4.2721778162054851e-02  9.9407427473905874e-01  3.3117118778872627e-02  1.1467560161420836e+00  6.0085101309311585e-02  9.0801498852105156e-01  8.3406524012887240e-01  7.1874500441323499e-02  2.2303336449190281e-01  8.0563291255624156e-02  6.4561439501826703e-02  1.1170513209100097e+00  5.4518613237026350e-02  6.2658032720494000e-02  7.0511238742740165e-02  7.1473070181871559e-02  6.8606666240758507e-02  1.0851554683442568e+00  8.6641311085779382e-01  5.9983491143088534e-02  1.1642167663534797e+00  1.1588225696627823e+00  5.9836429316852006e-02  5.6935307313861962e-02  5.5719495634170960e-02  6.1016399828917940e-02  5.7599518106099402e-02  4.9738155933681825e-02  5.4813537069531112e-02  4.3019000909484982e-02  6.7744728783678584e-02  5.9898597219067269e-02  2.3151311085450607e-01  5.7054968821333027e-02  1.0974863252163094e+00  5.1660640220638605e-02  2.0846727998749037e-01  6.5051051586439299e-02  7.0723462533057072e-02  8.6601797246778370e-02  5.6349138547833744e-02  1.3497417167645578e-01  5.3825716549683968e-02  8.9478268732269828e-01  8.8225262495157530e-01  5.1901563997139209e-02  2.8610725338407889e-02  6.3661378628963608e-02  6.5225089686096832e-02  5.6188689624738483e-02  2.3194742423691933e-01  5.4032994881408912e-02  6.1342393077803509e-02  4.3940459104513198e-02  3.8831238087744517e-02  6.4645461289753847e-02  6.1404255278026516e-02  7.7194268390827589e-02  8.5870842246600998e-01  1.1623876075716444e+00  4.5094330677831973e-02  5.2330951032053069e-02  4.2468455817627461e-02  8.3085787211066442e-01  6.2793318370423942e-02  1.1610167224204724e+00  </DataArray> 
</PointData> 
</Piece>
</UnstructuredGrid>
</VTKFile>