<?xml version="1.0"?>
<VTKFile type="UnstructuredGrid"  version="0.1"  >
<UnstructuredGrid>
<Piece  NumberOfPoints="939" NumberOfCells="1746">
<Points>
<DataArray  type="Float64"  NumberOfComponents="3"  format="ascii">-0.9827031760224477 0.02511350516427615 0  -0.9763013728067086 -0.08111966674138335 0  -0.957777923089162 -0.1860689943649087 0  -0.9274925857503814 -0.2882174009957007 0  -0.8852403475249253 -0.3864421333122703 0  -0.8323582432077161 -0.4787099466017701 0  -0.7701771075007382 -0.5633293911065619 0  -0.7000466015137973 -0.6397194944436337 0  -0.6233202043752977 -0.7072005814327604 0  -0.5406415258828503 -0.765756899954116 0  -0.4529121400691795 -0.8152514583617418 0  -0.3612472591340873 -0.855365692042248 0  -0.266176863575499 -0.8862712830833489 0  -0.1680420985218175 -0.9076908264539102 0  -0.06830226453208636 -0.919411635177586 0  0.03220224711328474 -0.9213325517840678 0  0.1325096452698691 -0.9131288617141198 0  0.2311209139641713 -0.8952515488182948 0  0.3274790955172521 -0.8676961993541871 0  0.4207743866226345 -0.830703886788125 0  0.5101660364403244 -0.7843897872405753 0  0.5946648813410744 -0.7290309979933123 0  0.6732290829776749 -0.6648867542929975 0  0.7458146314494043 -0.5919194910224986 0  0.8111207677343951 -0.5099822826878441 0  0.8673886404030302 -0.4202024779478517 0  0.9135279896248253 -0.3237677870767462 0  0.9481745383098603 -0.2228435760327223 0  0.9709647457011878 -0.118969264030928 0  0.9815459462594562 -0.01288115143955278 0  0.9798476302554847 0.09365335523965647 0  0.9660322923924912 0.1990906859503021 0  0.9404035765308781 0.3021015327882878 0  0.9031646327250904 0.4017805284282073 0  0.8552702680567262 0.4964076526120274 0  0.7966970952410184 0.5853083802758157 0  0.7288783477147677 0.6670963073942798 0  0.6525121996489613 0.7410006633477592 0  0.5685966484846862 0.8061432436135412 0  0.4779920924916808 0.8619954910306136 0  0.3820324129220114 0.9077530799960173 0  0.2817816942190268 0.9432633562947003 0  0.1779756902303833 0.9677399418526026 0  0.07234069915862727 0.9810656239409048 0  -0.03405560279127057 0.982919111339035 0  -0.1402348620800646 0.9735751404933973 0  -0.2449141846713897 0.9530737635520021 0  -0.3463650110344285 0.9214909568843018 0  -0.4439601825318398 0.8794120784293163 0  -0.5367889657203023 0.8269677370334163 0  -0.6231091064833624 0.7650824219473225 0  -0.7024905987450925 0.6942294984509241 0  -0.7734952083319162 0.6152262536900734 0  -0.8355388610541571 0.5286266568123333 0  -0.8872895526262046 0.4361510839628409 0  -0.9285645710296543 0.3385588800105099 0  -0.9585256420956313 0.236611984647839 0  -0.9766964722557592 0.1317925095964544 0  -2.091761965707704 0.1011781928219812 0  -2.091757546059853 -0.1011784695025174 0  -2.072230047024609 -0.302591831320985 0  -2.033352179798583 -0.5011764574886663 0  -1.975489276347332 -0.6950836689307729 0  -1.899182014670107 -0.8825002631693813 0  -1.805143941104869 -1.061679596523638 0  -1.694248422959684 -1.230943567287117 0  -1.567537491662796 -1.388715833185436 0  -1.426186118109481 -1.533519174455648 0  -1.271524226350656 -1.66401138904385 0  -1.104989911265895 -1.778962127545584 0  -0.9281347720069615 -1.877305511356039 0  -0.7426181314468597 -1.958118275936419 0  -0.5501627616863993 -2.020647616641659 0  -0.3525721601467771 -2.064316826906339 0  -0.1516940875191712 -2.088707719101251 0  0.05060237572341808 -2.093597565582289 0  0.252428995993477 -2.078936191147094 0  0.4518976221109523 -2.04487091341014 0  0.6471461271648388 -1.991710819998251 0  0.8363518189454698 -1.919950354146465 0  1.017748798653572 -1.830267795798281 0  1.189643531073465 -1.723496599610261 0  1.350434844832817 -1.600634608277108 0  1.498613538927935 -1.462828171220323 0  1.632799963329421 -1.31136089332514 0  1.7517408702624 -1.147652445203365 0  1.85432750227204 -0.9732258819958955 0  1.939600452774556 -0.7897143374557328 0  2.006763800070371 -0.5988305311497985 0  2.055188052822583 -0.4023527464897297 0  2.084429226584446 -0.202120034680668 0  2.094206221669381 -3.06711689330482e-07 0  2.08442619712519 0.2021197071336506 0  2.055188625427196 0.4023518685555437 0  2.006762038553253 0.5988278595901475 0  1.939601471280953 0.7897156358451234 0  1.854326029400342 0.9732253144762268 0  1.751739545110323 1.14764984027646 0  1.632801542774058 1.311360990864914 0  1.498612380447425 1.462829015640671 0  1.350434761235772 1.60063626851212 0  1.18964594501929 1.723500391327626 0  1.017752243605683 1.830270678326164 0  0.8363519498716423 1.919955184417629 0  0.6471451939706738 1.991708115251984 0  0.4518964361962642 2.044868525890673 0  0.2524288729997333 2.078936723423911 0  0.05060398847773975 2.093594499542332 0  -0.1516950082649628 2.088708532398635 0  -0.3525745197500724 2.064313559728357 0  -0.550163510585188 2.020647856603897 0  -0.7426167527489145 1.95811999410476 0  -0.928135792761024 1.877305210047871 0  -1.104989998896925 1.778964488520255 0  -1.271524810760357 1.664011383162032 0  -1.426189934799965 1.533522503173284 0  -1.567538124833832 1.388715733380213 0  -1.694247321313588 1.230941345545836 0  -1.805141789013045 1.061676228147564 0  -1.899184254620525 0.8824992207239217 0  -1.975490683375654 0.6950839957837753 0  -2.033350182324084 0.5011753036427967 0  -2.07223100511579 0.3025874442079751 0  0.001790658198638051 0.04208392477204129 0  -0.03638911669354444 -1.513177415734974 0  0.537517046034692 -1.419556033525004 0  -0.6055533707698226 -1.39254449909932 0  1.037311515030687 -1.11749351298836 0  -1.090705091611859 -1.066922755140618 0  1.408652590623656 -0.5941587610346722 0  -1.432207582894409 -0.5386255520216727 0  -0.6180248909335477 1.411241019456298 0  0.8143013803225533 1.308287325453211 0  1.538201081629702 0.060929149113926 0  0.02910178879856161 1.536364926205706 0  -1.514374907650001 0.28858410588455 0  -1.10860934894974 1.074530737813315 0  1.253164543508417 0.9028169410396482 0  -0.4940205813010551 0.009938673883899421 0  0.4943178499178104 -0.007698117311234536 0  -0.2209264130349638 -0.3834868203054722 0  -0.2559344709181961 0.4429392653007408 0  0.2839479258129165 0.4257920624087964 0  1.35562713215297 0.4662582296728358 0  -1.450266913112614 0.7539640065757394 0  -1.641521851124862 -0.1404967129640781 0  0.2395228673958353 -0.3918067857990954 0  0.3983337333824747 1.340493295216614 0  0.627820686460776 1.623441623642154 0  0.2912174491616598 -1.704583596027056 0  -0.3716376263327775 -1.688132637919086 0  1.399965759959098 -1.017499828684021 0  0.9139586022146186 -1.470662799809967 0  -0.9811788227112235 -1.425090873716048 0  -1.447120005767473 -0.9199959178453863 0  1.592011551620383 0.7343669424227146 0  1.700867759913493 0.381060129205132 0  -0.3334714985434296 1.677809068185702 0  -0.9881528982519845 1.427520143574 0  1.185855037636393 1.269254317729427 0  1.719938630410887 -0.2549312194638861 0  -1.314772319463059 -0.04031358718258048 0  1.318729712580712 -0.2402695913771755 0  -1.236488557036461 0.4839117029549312 0  0.3051959616528162 1.738183726982135 0  -0.2642485210338164 1.316008903530239 0  1.070750412098054 -0.7609795453701317 0  -1.109995666440606 -0.7095196027664428 0  -0.2956209856254548 -1.235224793832238 0  0.2473733245846183 -1.239135089357936 0  0.02092512001056099 0.6468309856063724 0  0.6812686665755574 -1.099674083349001 0  -0.5730870694433289 0.3302170121882225 0  -0.5449815680662734 -0.3182205020776795 0  -0.7346836337994069 -1.067129057959223 0  -0.7723925239906584 1.064859471778029 0  0.9119285567618678 0.9714210244330715 0  0.5929457862809461 0.3077007059751142 0  -1.692813091534446 0.5535028999816365 0  -1.784368615939992 0.1372040089132733 0  -1.062668544819076 0.7544800063679594 0  -1.423534984777465 1.070926261341276 0  -1.734394697891864 -0.5196849207177512 0  1.709312612398196 -0.6032458628176034 0  0.5490895953893234 -0.3253831511813817 0  0.00571293769143804 -0.5998405338521897 0  -0.1008215488261244 -1.800737586138967 0  0.6438897252533979 -1.696799255722492 0  -0.7751493134962857 -1.630812964163477 0  -0.04402814081581843 1.818954050939314 0  1.27887260711373 -1.277848279186347 0  -1.245204711007616 -1.310976155383218 0  1.114553089462853 0.6378936577734896 0  1.152494287727712 -0.4693758909666353 0  -1.224624576405895 -0.3249203162923027 0  -0.4979613734689219 1.156507089544821 0  1.824142683163548 0.08459338737176018 0  1.021083821517426 1.499375653703483 0  -0.7927262596757373 1.631922580462383 0  0.6522958253840894 1.079379019583454 0  1.257706795859911 0.02991729491781248 0  0.1200124075499174 1.263028573649152 0  -1.268923125734209 1.303930582667908 0  1.513675003425275 1.003636732022372 0  -0.0235502795766281 -1.197773726512584 0  0.01049395128586761 0.3272964080031681 0  -1.25556953632525 0.2177755063259766 0  -0.876729962656855 -0.8446044492639988 0  0.8648219888814079 -0.9192243366324145 0  1.613326755079967 -0.8535876418100556 0  -0.7278338455071034 -0.08756504286258865 0  0.7232728723644047 -0.1147934631243279 0  0.3253821258503431 0.6681658553832607 0  0.2366401407560791 -0.1122095638352057 0  0.2715204073667183 0.1559843362884954 0  -0.006610056538987683 -0.2233869528188592 0  -0.2406052059890362 -0.08536098556383667 0  -0.2282372446841473 0.1798791056061445 0  -0.2388537748778739 -0.6336871304163267 0  -0.3000892401534344 0.6822420571844862 0  -1.662531973237635 -0.7704535018756904 0  0.4246073812522342 -0.5495497618533769 0  -1.450093672098604 -1.168982458969833 0  -0.4847721840242372 -1.078222778264633 0  1.176111266923321 0.3079335376798261 0  -1.610933576210467 0.9288358157287042 0  -1.263521423316004 0.8965394141620632 0  0.3078901998604174 -1.468868870968129 0  -1.87242899196987 -0.1840256401812785 0  -0.5615644392951895 1.636424848600733 0  -1.464173716560183 0.5228552610034729 0  0.4368861116633245 -1.091313501511688 0  -0.5904045021740645 -1.778535203855304 0  1.513111760179144 -0.3802120336687677 0  0.1241169096663494 -1.87069009799211 0  1.150603707429658 -1.476358893669714 0  -0.381151558485788 -1.454408580808819 0  1.416362059484324 1.2204
[...]
<PointData  Scalars="f_1797-1"> 
<DataArray  type="Float64"  Name="f_1797-1"  format="ascii">3.4625375615126686e-01  3.4900979076467864e-01  3.4223270441561404e-01  3.4093479381938707e-01  3.2009742748135894e-01  3.6322210147660045e-01  3.7561621944906914e-01  4.2739096955119960e-01  4.6417646503190002e-01  4.5642591139972610e-01  4.6457434930974684e-01  4.7181688769356145e-01  4.5617630392932151e-01  4.6921643618001974e-01  4.6217719917662270e-01  4.7742055829541336e-01  4.5114215107765554e-01  4.6319845542570848e-01  4.6327501410480892e-01  4.6144825840186443e-01  4.7160131751517986e-01  4.5238312769142175e-01  4.4173225172812691e-01  3.9521739048739951e-01  3.6742008098286144e-01  3.4400458178135201e-01  3.4280434534382953e-01  3.5140498484577498e-01  3.4753674148291008e-01  3.5306618324734401e-01  3.5832116272307796e-01  3.5653753107866942e-01  3.6090402079293515e-01  3.6269785308297636e-01  3.7539541194132431e-01  3.6102488631297597e-01  3.8859179011791600e-01  3.7351397203460479e-01  3.8757029385712233e-01  3.9836242021651747e-01  3.8836481853537591e-01  4.0451181028770122e-01  3.8128794969248525e-01  3.9604794962529133e-01  3.8525971690182953e-01  4.0119245275229737e-01  3.8289494111059302e-01  3.8795268886720768e-01  3.9082815655478781e-01  3.8858921067477070e-01  3.8901717476454806e-01  3.7663741785961258e-01  3.7415389675254229e-01  3.6734608333091867e-01  3.7410626756553389e-01  3.5931270717072072e-01  3.6917626787821561e-01  3.5121530268777890e-01  -3.1630305705708607e-02  -1.0429545790715787e-01  -6.0561306254867490e-02  -6.3028535994601953e-02  -6.1723431098588598e-02  -5.9712212336096269e-02  -2.7320505611020528e-02  -5.3900971660386550e-02  -2.7636578739968602e-02  -9.2217930706247703e-02  -2.0655151887604514e-02  -1.6807697748769220e-02  -7.3863858067748618e-03  -1.2346064483378676e-02  -5.8928711002010158e-02  -8.3707556984786678e-03  -3.9713106926055697e-03  -3.0346036473158857e-03  -5.7480628673440427e-02  -9.6506674051530274e-03  -3.8643391658706194e-03  -6.5967611834492415e-02  -6.9773242565677934e-02  -7.4579627671807397e-02  -2.8479693490799034e-02  -2.1088775074327538e-02  -3.9198926222939502e-02  -4.1991413090389826e-02  -5.3295817810388814e-02  -5.5013964727671991e-02  -5.4866496441855130e-02  -1.0964662664163546e-01  -6.2674265640515814e-02  -5.1904015215427687e-02  -1.0755399113693508e-01  -9.8668874797790254e-02  -9.3076338976792197e-02  -2.7891937215252360e-02  -7.8012063885515653e-02  -7.7368695053169831e-02  -9.5986324132469152e-03  -1.2465537240040020e-02  -2.6927204737416440e-03  -1.3072249519962616e-03  -4.8206701406058993e-03  1.0311965169657718e-02  -4.8612796403494904e-02  -4.8997840424295364e-02  -4.6728349651886492e-02  -4.5449336947789645e-02  2.0773306058010345e-02  -4.3711279938148273e-02  -4.9713548917511917e-02  1.1297765668278670e-02  3.1304577443021894e-03  1.8845242009503192e-02  -1.0082894643380453e-02  -9.2200041234276678e-03  -1.2611632446191075e-02  -7.9801646544914118e-02  -7.1469738436052255e-02  -2.5980901054654899e-02  -2.7986320653998385e-02  -9.0959152256767012e-02  -5.1634901292627614e-02  8.5142335293438720e-01  7.1701927985004008e-02  6.6829056168114742e-02  6.5365634221566146e-02  4.7531015606300714e-02  4.3523133149593489e-02  1.9443261546902135e-02  1.8309193080424412e-02  7.4596490719494604e-02  7.0013393863216755e-02  2.3230926151394781e-02  7.9284171924907693e-02  3.0074156167815520e-02  5.9813806858796052e-02  5.2239596770918356e-02  8.3611329906752929e-01  8.3735265071261500e-01  9.0183434010920394e-01  8.2007196164136786e-01  8.2082988204125096e-01  3.5865097181406583e-02  4.4679555833003766e-02  1.9212110063452619e-02  9.0206989187240183e-01  7.6174998160639731e-02  7.3282161486246139e-02  6.7856328192814896e-02  6.7166315709122154e-02  3.0833463177348031e-02  5.5977145056111149e-02  5.3285422909254129e-02  2.6733543887206210e-02  3.9814498916634425e-02  2.8894906031012187e-02  7.7531804997278270e-02  6.6581903575579776e-02  6.0234395528386442e-02  1.6641377643494087e-02  1.6063548314612781e-02  1.0604964708941183e-02  3.6178409706290583e-02  7.6462805735926356e-02  7.8892324158037722e-02  2.4719223021156905e-02  2.0991955981841375e-02  7.0154633915845685e-02  6.9711566356833982e-02  8.0935480523183456e-01  6.5099612202838802e-02  8.1565158345623789e-01  8.5765433166590477e-01  6.0316224184975870e-02  6.5423422188907204e-02  5.6179770692369645e-02  8.0907257735843463e-01  3.2545514509078929e-02  2.1869205016307347e-02  5.5495498236147793e-02  5.0991330860338101e-02  1.4834584971749444e-02  1.5370167629565624e-02  8.5635113964670917e-01  9.2951330364314144e-01  6.6247840712489875e-02  6.1515810525247759e-02  5.8188417492772350e-02  7.5921822679408016e-02  3.9108129767740238e-02  4.1167745744890766e-02  5.2925686743188538e-02  1.5803444437920158e-02  1.3478440088459678e-02  7.8092568600235224e-02  1.9479461796187904e-02  6.4178117601428969e-02  6.9591921638513077e-02  7.3923839081962608e-02  2.3783176333713928e-02  8.7770007830735644e-02  5.6322430381437576e-02  4.6577557131226986e-02  7.8312857208902242e-02  8.2971181329393018e-01  3.1983899561598306e-02  5.5576324612421728e-02  5.5093770600253250e-02  1.9535645657085852e-02  8.0122984279175846e-01  7.9889402862868353e-01  7.9036820824695209e-01  8.6310349177483592e-01  8.3723758720448926e-01  8.8140424082964219e-01  8.5981756545841370e-01  8.3670263292122060e-01  9.2628276547987043e-01  7.9072215327136308e-01  1.6241228417095768e-02  9.0547959541628842e-01  2.8874707194712537e-02  8.3992650160847560e-02  4.0941592657454541e-02  4.2234446692133894e-02  5.2473886486839059e-02  7.0411748892770049e-02  1.2936580336564290e-02  7.4900849908385830e-02  3.7765296537179742e-02  8.2403874466792426e-02  6.0049145954935816e-02  1.7415153950954020e-02  6.4769796572311356e-02  4.5554907542557914e-02  6.9403385721111738e-02  5.0872686106982257e-02  1.7554263738187203e-02  2.3626336807243169e-02  8.0273239463280099e-01  2.9567519144558234e-02  4.4422029413097815e-02  7.8151135377591663e-01  9.1108787316707029e-01  6.6875075679778420e-02  8.1002105177382200e-01  2.9995645908472722e-02  7.8663367576400389e-01  2.3609905017232265e-02  5.7846903273471605e-02  8.8131868360297738e-02  9.3132594069558017e-01  5.9391909259714777e-02  6.7045471181561220e-02  2.5383482716994445e-02  6.1114316455964462e-02  6.9999196410774137e-02  7.8740759276624411e-02  7.3752915920133708e-02  3.5679827830251309e-02  1.4846205094199988e-02  7.7299921468756916e-02  6.8475507696903498e-02  1.3696543483709465e-02  1.0083543977027511e-01  6.4305509753623785e-02  7.3929806538863288e-02  1.0140375691272940e-02  6.0858477262952348e-02  4.9560296249541981e-02  1.8663466711917324e-02  7.2080298759236050e-02  6.8025089678807299e-02  3.2061409631486931e-02  2.2875473118208936e-02  6.9694596552120514e-02  1.2014657922745956e-02  1.5648381613047341e-02  1.9972131223281581e-02  4.5994908780791689e-02  7.9159783699706068e-02  7.7966750965903123e-02  3.1511881228708016e-02  6.4660517889725502e-02  3.5101505453555580e-02  1.7157614366475102e-02  7.1172614552303226e-02  8.7294320204944120e-01  1.1980244194168289e-01  5.8066044222623535e-02  8.2389885633920679e-01  6.2295363386766459e-02  6.0751733037020833e-02  7.0048061280916077e-02  5.5905024610068965e-02  6.7300774974958566e-02  4.3701627083636008e-02  8.7243457585636175e-01  4.8301064323779695e-02  5.1023682721354525e-02  4.8932478753519006e-02  2.2732157422574339e-02  4.4049769142255682e-02  9.0746666903830975e-01  1.9483593730164141e-02  7.1224543745834701e-02  3.6343662196502084e-02  5.8807911381762265e-02  6.9385775216789611e-02  6.3234699487722590e-02  6.1133138490470106e-02  6.5004036987290847e-02  4.3611762448550744e-02  5.8429804946636209e-02  3.6159259765813051e-02  7.7163555235806291e-01  7.9989750857849429e-02  1.4356393592865066e-01  6.1579031020797211e-02  1.1275409112123863e-01  1.4672697177643064e-02  6.6794843221560027e-02  8.8863336857611913e-02  1.5106042127862195e-02  5.3533241426893398e-02  7.6853361223346417e-01  6.6257750154740253e-02  2.8879854717805579e-02  5.3263097771740785e-02  6.3526474565150967e-02  7.1317423140443884e-02  8.2254536107056164e-01  7.3758420699406280e-01  1.2588623641704101e-02  7.7888175479542632e-02  4.6339069144604041e-02  2.9537203655836151e-02  2.6112132332909630e-02  3.2227133179887714e-02  7.6204949896678975e-01  6.4744448246075503e-02  1.3215567555739871e-01  8.1747363347548496e-01  7.6822154853845626e-01  6.1951345266866492e-02  6.9471775522142065e-02  7.6838900167805715e-02  1.6203941839098471e-02  7.6067391995002620e-01  7.5035962799837619e-01  7.3598508806901913e-02  5.8427937071270343e-02  6.0751070663591630e-02  9.0250638933459915e-01  1.2497941378387396e-01  2.1934247429270685e-02  4.8377373960692575e-02  3.5624439276917857e-02  2.4316804392370137e-02  6.8036643386058679e-02  3.4768764599697848e-02  2.6021802039235816e-02  6.7637476998874999e-02  1.5348273427611223e-01  8.1357107420377062e-01  8.1573877148703122e-01  6.6315079819255903e-03  6.8936416700568201e-02  2.7475448862837912e-02  2.2279902527265430e-02  7.1587908114795068e-02  3.3090673645497622e-02  2.5911548274283842e-02  6.6624499919946178e-02  7.4285763872950564e-02  1.5526080746634430e-01  3.9179178443660999e-02  1.8327688811732638e-02  7.3593956632084706e-02  3.8178589076419703e-02  2.2744076697852278e-02  1.2726437330826196e-01  7.7372874729508967e-01  8.2114459120630234e-01  7.7566134988801327e-02  5.7093013033033310e-02  8.2471810515515487e-01  1.8423936755128375e-02  3.0390019051907941e-02  9.6508959611282235e-03  8.9369326811276673e-01  8.3784603477761854e-01  7.0822210139746225e-02  3.7027458112332899e-02  1.7589529910585589e-02  1.9051335892732169e-02  6.1049078025586699e-02  6.0802239951748493e-02  2.0502701165553548e-02  5.4536500263663808e-02  7.8651923266567253e-02  8.5375353197087966e-01  4.3020921000519866e-02  7.2646811599951000e-01  1.5695241520769409e-02  8.2038490196040792e-01  9.3079029525229354e-02  1.4638480782712968e-01  8.0420663975872594e-02  6.6513009354858904e-02  1.1236959512841198e-01  9.3215332910832754e-03  5.6158518587150784e-02  8.5086547166184079e-01  7.1080393566484122e-03  1.3621260202014356e-02  4.2339705246125146e-02  5.2619320939410311e-02  1.8272880453491572e-02  3.3127317277874394e-02  2.8797552331665456e-02  5.5725102818541178e-02  4.4029243550559961e-02  4.8867548365544515e-02  9.2005302887633145e-01  2.7251335802875323e-02  8.3977552087438145e-01  1.8250088693307773e-02  8.4281187530508406e-01  1.2763752069960130e-01  8.3908855394167292e-01  8.5031264370172399e-01  8.6512942147550675e-01  8.2969817388044331e-01  7.1246392298521199e-01  8.3229025681593327e-01  8.4651479598246737e-01  7.8456378153849052e-02  1.2848684421673209e-01  9.2434942297967126e-01  8.7930575206815142e-01  7.5383491921884246e-02  8.9216919749654711e-01  8.9636756456071798e-01  6.7419253241273902e-02  7.4171917871833351e-03  4.5818062609304051e-02  6.0846578367626206e-02  8.1438281962032177e-01  6.7432209320970309e-03  3.7827986992678107e-02  1.2241155310090381e-01  5.6421778377737312e-02  8.2257680531229060e-01  8.2869450749912965e-01  3.3303049110532931e-02  6.0449781777520903e-02  6.6843421710102213e-02  7.9316304383745470e-02  8.3566914145156301e-01  6.4163820087852250e-02  8.5236025419958916e-01  6.9536786626603828e-02  4.4616377750826060e-02  7.6237774431718114e-02  7.1900005482108398e-02  8.1526616245571071e-01  8.3900421886156162e-01  7.6725523811135926e-02  1.5209703649157277e-01  7.4970056009925248e-02  3.6970424115253274e-02  1.4278343732175439e-01  7.6809072203491313e-02  8.4011508172113183e-02  1.6299332093441424e-02  1.3701490340801983e-01  7.1279327937792358e-01  7.3724213944900516e-02  6.7776787324240736e-02  4.2502864669662417e-02  8.8103306929225611e-01  7.0825451155113656e-02  2.4411204722216480e-02  9.2955863140312664e-02  7.2310103795588865e-01  7.0638155041874995e-01  5.1424031583803001e-02  8.0442513202365362e-01  5.3635746807836122e-02  5.9184595092831249e-02  7.2605310290442523e-02  5.2031594509541146e-02  1.5691816915469722e-01  5.8794098157525149e-02  1.1112282078453753e-01  3.9775194999515276e-02  6.6896982199606395e-02  7.4854790711093466e-02  1.1288543902159227e-02  6.5285137703876728e-02  -1.7336165280959388e-02  7.0374659188902566e-02  4.7364390960768554e-02  7.6992069643940175e-02  1.2364383874345549e-02  8.4945755751880980e-01  8.6464312476166438e-01  1.1359677761740268e-02  4.9677776559152308e-02  2.9593821179983281e-02  2.2762191287058149e-02  2.5144765090693404e-02  1.6050327274798586e-02  6.1701575486703082e-02  1.4916101317817504e-01  6.2945586359736280e-02  5.8744292257527295e-02  3.2046430570696727e-02  8.5651965808838781e-01  4.0143263466346425e-02  7.9155279562768022e-02  7.1594047583869641e-02  5.6285050456859526e-02  5.4654637990706030e-02  5.2111819687317082e-02  6.0042864668951701e-02  3.0480045074292573e-02  2.0525926222824134e-02  5.6165875525888191e-02  1.7506182390102673e-01  1.3733432456923461e-02  4.6604546217861351e-02  7.8052783897812880e-02  1.7287965419268473e-02  6.9711050571284655e-02  5.4612648863073425e-02  3.7192974183619901e-02  8.6165982387526385e-01  1.7890608699458084e-02  9.9768345057275207e-02  2.0571769891584709e-02  8.3672441678223175e-01  3.1787626321552860e-02  7.5721730480807700e-02  3.8035475517364276e-02  4.3359871955119166e-02  7.3099827355009833e-02  8.8690056654113214e-01  4.6399211042403007e-02  1.9425081851913707e-02  6.2547882222194498e-02  6.5336544189650791e-01  7.5287989002557926e-02  4.2543600732975854e-02  2.1845856753810487e-02  6.5549365330489523e-02  8.3283488659933458e-01  8.2339560943201962e-01  2.2568602809310504e-02  7.5340307813041596e-01  7.0511232361293391e-02  5.4711818618911584e-02  6.4417799640010187e-01  8.2810191250047904e-01  -1.1808369474434442e-02  8.9214846890183153e-01  6.3409565927094325e-01  2.4724458858500085e-02  4.4251721985431924e-02  3.2265038717616934e-02  4.5183170146052047e-02  6.6950422066109538e-01  8.1085442099683436e-01  6.8500502580689279e-02  8.1816239299056348e-01  3.5789495832815883e-02  7.1188285607680771e-02  2.1218422193849749e-02  4.1560378689834178e-02  5.1388262445733454e-02  2.5512751964582404e-02  7.8153166025715215e-01  9.1943355396858162e-01  1.3752393453737169e-02  6.3895895848395390e-01  6.9453503963223653e-02  4.2963711954080372e-02  3.7647127017548972e-02  5.7461471257287275e-02  8.3443628412603513e-02  4.1924297689040532e-02  6.2044507450340840e-02  2.6657991680774096e-02  5.1373629870861318e-02  7.1806700150908315e-02  6.9186881330066785e-02  1.5413782098105653e-02  7.9793401383088014e-01  9.1958376369071582e-01  1.6775419555890630e-01  7.1199172152547854e-02  6.8229531472781957e-01  2.9078378934322722e-02  5.9464337483836650e-02  6.7096046382006294e-02  6.7116973476405523e-02  6.6699535998385476e-02  5.3870997913446274e-02  5.7890923580517596e-02  7.0704021743519418e-02  2.5865339523971867e-02  2.6315661950921162e-02  8.3613940962415007e-02  7.1768034849890569e-02  2.3481350946749423e-02  6.1041954506832918e-02  6.5998069688845173e-01  1.8422021963402885e-02  8.7936186792122006e-01  6.5140453090438488e-01  3.0923426558445218e-02  3.3099856011939072e-02  1.5145367338207465e-02  1.7508315454325189e-02  1.7496773915138698e-02  6.3784583715661525e-01  7.5334067082048303e-02  2.1595567417767580e-02  6.6396427490457183e-02  1.7348113398332868e-01  8.0599657692536075e-01  4.0370394550159415e-02  1.1869548041794421e-01  -2.3119422307459614e-02  3.1882168995600264e-02  1.4769632014644224e-01  7.7282868054261222e-01  5.6210066207229764e-02  4.4985224661497292e-02  5.0557941668724161e-02  7.9517959291294560e-01  4.2072011149261415e-02  6.3488552663639217e-02  5.2829838620726495e-02  6.0348500543539511e-02  4.0511865596542594e-02  7.9772638328647366e-02  4.2826132967075783e-02  4.5941109149914887e-02  6.6266435192545936e-02  6.5158827481116635e-02  5.8544905245206114e-02  2.9131520788574759e-02  4.8371068056092759e-02  1.2767197309636044e-01  6.8670487851109949e-02  6.9212808886662119e-02  6.9257474410915523e-02  7.7425901836015443e-01  6.5713203970831871e-02  9.8428671983834624e-03  4.8385202414225031e-02  9.7396853152209306e-03  7.9968292810935981e-01  4.4321405708690267e-02  8.5406649792006739e-01  5.1338503558885171e-03  9.1004543285420608e-03  1.6621457545188793e-02  8.6578132832441451e-02  3.5716027298091597e-02  3.2551165091805508e-02  7.0445157819205489e-02  8.4831189826466424e-02  1.4165804811041147e-01  6.5806269509580503e-02  7.1028523745042774e-02  4.9287814766668749e-02  7.9310855174370309e-02  7.6168156230414300e-02  7.2229175722535635e-02  7.5872957481130945e-02  1.1208481377801832e-01  2.0561309866490973e-02  2.6002204211419664e-02  1.0745693105713099e-02  1.0059967540496913e-01  2.1643273791658698e-02  1.5404793016456416e-02  2.0947518073261798e-02  3.6592342605891642e-02  1.9282976730280843e-02  6.4074965923945654e-02  2.2821886287754944e-02  7.1368549212762075e-02  2.2690497128907933e-02  5.7598221868408586e-02  6.2686747395137876e-01  9.3604232050145564e-01  1.6426394911294273e-02  1.7983320845951722e-02  2.6199573481051151e-02  3.2987076185765914e-02  1.9091222132689496e-02  7.1313164561617459e-02  6.3729355239131300e-02  7.2438226670903161e-02  8.3420302177039907e-01  9.9710478537576641e-02  8.1195211892064145e-01  1.1859559463037996e-01  6.4945247013150215e-02  3.7100001295106169e-02  5.3528575346878486e-02  6.0557521242590805e-02  4.9050781317251754e-02  7.8629712773603300e-01  1.7643940400156821e-01  6.6430418909781117e-02  8.8894714563817290e-01  6.6455143703984296e-02  6.0312782723036355e-02  6.2464827395671989e-02  6.7799059337060583e-02  6.9209238058085348e-02  7.2933971512280815e-02  3.3607518956615880e-02  6.1513298433085550e-01  2.0204185608350602e-02  2.0332688554566210e-02  7.6280743814484783e-02  2.3301108379407690e-02  7.2296439608660654e-02  7.6624620301473795e-02  7.7393731637394478e-02  4.8798114473451421e-02  4.5039964129839689e-02  6.3713487991213305e-02  6.3205727801246514e-01  4.0082894090312564e-02  6.0169527609095767e-02  6.3620197453333791e-02  1.3655428727393687e-01  8.0908197176540919e-01  8.2494559838944914e-01  8.0448581593636226e-01  1.2681233034846032e-02  3.2015030718586794e-02  4.1710864445448075e-02  5.1957618970093350e-02  2.8406970919877400e-02  7.2155212748822528e-02  7.5624000241445152e-02  7.3761874636912264e-02  1.3939619229661145e-02  6.0634134675527473e-01  6.9294971791300508e-02  6.2030756471068571e-01  7.7093266141841155e-01  9.3342706500565709e-01  5.3613370786182508e-02  7.2414448236270357e-02  8.0006110041025080e-01  2.0431800848118256e-01  7.1096952668637040e-02  8.2464935090562674e-01  3.7403437641088354e-02  2.5857895018717689e-02  3.8821523460509016e-02  8.1348214804004981e-01  7.7252865861339823e-02  5.0657393008095838e-02  1.8674543851362252e-01  6.1249522695996879e-02  6.3672936410580652e-02  6.7343285871645939e-02  2.4149587919598727e-02  1.7959509423378933e-01  1.7796983723887713e-01  1.5217716491593347e-02  1.8569808474308488e-02  1.6393286620462663e-01  7.2631080899217729e-02  7.3701582597329132e-02  5.6544431910262254e-02  2.9848656840662856e-02  2.2775652033827837e-02  8.4410224879729059e-02  1.0386166565636124e-02  5.9109806013573032e-02  5.5953496715520981e-02  1.1290234782337895e-01  4.8645019152708517e-02  5.9420751783691994e-02  5.6026998059894417e-02  6.5267273572427897e-02  8.8426657873999816e-03  1.9915389671013010e-04  1.7001791216669952e-02  1.4401983503877532e-02  5.9683189880219745e-01  7.8937351300574415e-02  1.3079432817842324e-02  1.5529299547211223e-01  6.4333572744911388e-02  3.5509211845142413e-02  9.1221843532461522e-01  1.3384178826522949e-01  1.6257483424161369e-02  1.7652303209134666e-02  1.8336067154667946e-02  1.5957036479145492e-01  2.2201116483346231e-02  1.3836425309415665e-01  6.4154117298196547e-02  5.2331718466311475e-02  7.7008877577369420e-02  8.1849581104306868e-01  8.3442430329119377e-01  1.3418248769367480e-02  8.0789630483745012e-01  4.7317951925839985e-02  9.3985782004027463e-02  3.7510172778456342e-02  2.9182188666026055e-