<?xml version="1.0"?>
<VTKFile type="UnstructuredGrid"  version="0.1"  >
<UnstructuredGrid>
<Piece  NumberOfPoints="788" NumberOfCells="1491">
<Points>
<DataArray  type="Float64"  NumberOfComponents="3"  format="ascii">-0.9645573774619567 -0.07756773144349975 0  -0.9511269045833629 -0.1855878029300495 0  -0.9249625578421652 -0.2906050208650809 0  -0.8867109179755235 -0.3918945285593441 0  -0.8372007246345277 -0.4875150056900225 0  -0.7785868567755969 -0.5744756435637122 0  -0.7143812046272513 -0.6505303144450032 0  -0.645217834858969 -0.716941530232405 0  -0.5719941361845967 -0.7745921330665072 0  -0.4942702999011636 -0.8243728805280942 0  -0.4116330390990069 -0.8668904848808324 0  -0.3255517213166884 -0.901236239926025 0  -0.237837023393649 -0.9273771632493703 0  -0.1472075205253021 -0.9453062808478276 0  -0.05477426567028689 -0.9547857610553659 0  0.03715532266329357 -0.9555976409117009 0  0.1287950564321721 -0.9479189714217058 0  0.2190511466974933 -0.9320201815909884 0  0.3082935490979975 -0.9074278556917343 0  0.3943082176198897 -0.874782717142251 0  0.4768350112242473 -0.8343579762825502 0  0.555921786730717 -0.7858578498004392 0  0.6307599477232658 -0.7293683408795596 0  0.7010698269926882 -0.664524441369329 0  0.7660698186642273 -0.5907720826756936 0  0.826900391809718 -0.5047877352796253 0  0.878018321033509 -0.4113202118873652 0  0.9183149160703834 -0.3118320114217832 0  0.9470911380571861 -0.2064481828218915 0  0.9630279662945559 -0.09936951016583628 0  0.9662750645128764 0.008859966014972395 0  0.95676065863068 0.1162358013048866 0  0.9345733047850759 0.22306319068354 0  0.9003094049865651 0.3250577473021625 0  0.8548930712917019 0.4222610609887099 0  0.7979375325580279 0.5145877890740616 0  0.7308078866505099 0.5996555805597678 0  0.6547838485056452 0.6764082484946662 0  0.5699169814120597 0.7447188802954752 0  0.4786568715943114 0.8026641507026835 0  0.3814087142221411 0.8502314028645191 0  0.2795208564064505 0.8868327651602185 0  0.1735339747324788 0.9118946387370612 0  0.06586899098436742 0.9251046151083819 0  -0.04246961636859352 0.9263384784377887 0  -0.1510067533026634 0.9155281216425615 0  -0.2576298944026227 0.8928253107088776 0  -0.3602911425595905 0.858711174862959 0  -0.4591973072148415 0.8132250999796726 0  -0.5515737673040009 0.7575008135724267 0  -0.6379783337942998 0.6912535455837122 0  -0.7162150237530942 0.6158646243767151 0  -0.7849932468472146 0.5326712791839899 0  -0.8437151447050089 0.4424118744384434 0  -0.8920843084469952 0.3454790479487264 0  -0.9284369340105472 0.2443243019671532 0  -0.953090114461609 0.1390460315192659 0  -0.9652360030138396 0.03123184750636857 0  2.0060818564576 2.655440651992471e-06 0  1.995788950937172 0.2029481945495058 0  1.965020069750742 0.4038179803312636 0  1.914084944300245 0.6005414829704829 0  1.843489643184073 0.7911450519116392 0  1.754171958627823 0.9732474860843517 0  1.646472199893592 1.145976802856458 0  1.521902436260099 1.306957456041393 0  1.382128644342756 1.453992954105245 0  1.228194798158024 1.586148348103837 0  1.060794387793322 1.702654485017179 0  0.8838263763648726 1.800879733111489 0  0.6963421372695764 1.881336105322584 0  0.5032189319186821 1.941929053860466 0  0.3034458084817949 1.982994966595662 0  0.1016072135595263 2.003511435728962 0  -0.1012702931150368 2.00351765112191 0  -0.3041127849464529 1.982890810964075 0  -0.5028308149074323 1.942045213844529 0  -0.6964019226991937 1.88131906594476 0  -0.8837766302667635 1.800907367708796 0  -1.061108450942286 1.702480975377605 0  -1.227978819402256 1.58633337794829 0  -1.381866100502156 1.454224003646418 0  -1.522387423307478 1.306385202225478 0  -1.64627326125072 1.146336484251494 0  -1.753975513012669 0.9735290917209631 0  -1.843630463578994 0.7907900947875921 0  -1.91407954820685 0.600541361677838 0  -1.964934536348738 0.4041492196160018 0  -1.995807985307436 0.2026081691793513 0  -2.006076826167428 -8.847178705581457e-07 0  -1.995805415142606 -0.2026193319094275 0  -1.964929274570109 -0.4041587348164906 0  -1.914089328828147 -0.6005062822468586 0  -1.843501279950319 -0.7911151031828327 0  -1.754010796437603 -0.9735538017461646 0  -1.646518143703745 -1.146011799324255 0  -1.522133197255078 -1.306707189825715 0  -1.382129064735832 -1.453993812528455 0  -1.227900158702953 -1.586388156660423 0  -1.061437092413137 -1.702253794781042 0  -0.8834416749371911 -1.801019614506775 0  -0.6963898869022672 -1.881319028114602 0  -0.5028725467870939 -1.942035438751712 0  -0.303776924274145 -1.982955934191973 0  -0.101564063277165 -2.00351212487443 0  0.1012587100208156 -2.003515860394664 0  0.3037673449634625 -1.982897714555136 0  0.5032214695207895 -1.941925999307292 0  0.6963394152314355 -1.881334007979801 0  0.8837702950490687 -1.800907751716389 0  1.061111448278949 -1.702474227173215 0  1.227937969771801 -1.586364727447152 0  1.382154927870354 -1.453964006229179 0  1.521893763041081 -1.306959417767659 0  1.646468622516406 -1.145973418168682 0  1.754191816346067 -0.973185974777814 0  1.843322620510164 -0.7914778111354261 0  1.914035224640774 -0.6005383016578238 0  1.965070417180988 -0.4034796829875138 0  1.995780339755219 -0.2029968757691633 0  0.001466944237194835 0.02774857035960665 0  -0.1507105021285773 1.458395133385188 0  0.5065678569819125 1.373540291301942 0  -0.7251114700729181 1.280097261759359 0  1.059707198171003 1.021863319112612 0  -1.182301421537098 0.8873824602156722 0  1.405098035502885 0.4666793078687135 0  -1.443617230061345 0.3435291729163494 0  1.486223845737535 -0.1020418862229663 0  -1.468896192798927 -0.2504299130535653 0  0.5838498621457429 -1.379860590337468 0  1.331923915163141 -0.6740713942718837 0  -0.1699172191368962 -1.485967768767259 0  -1.287881634965532 -0.7454707734399025 0  -0.7202953750325781 -1.316236722211663 0  1.006047206183593 -1.108364922763418 0  -0.4873330361278093 -0.08050520480109483 0  0.4946216706524403 -0.0448118182832739 0  -0.3071643617544828 0.3743457061023677 0  0.2872110134351634 0.3891595028822155 0  0.1941133040203024 -0.404194506719958 0  -0.9696578047143706 -1.004184922419599 0  -0.2314984459460777 -0.4245008792619787 0  0.2281146956956837 -1.576243880512483 0  1.404381359291829 0.8538931170831825 0  1.105842849099337 0.6652149014538326 0  0.2028900665942108 1.617261593751856 0  0.1616884905949447 1.260822031534288 0  -0.501314201510225 1.578411610230855 0  -1.087618634998533 1.24962078221968 0  -1.49568041043158 0.7135450326101317 0  -1.657868757844437 0.06598654583291194 0  1.602525736243454 -0.4301798955627254 0  0.9648407752537635 1.367179456808716 0  1.649003296302179 0.222601796418967 0  -0.4988646231654786 -1.598698804410639 0  0.009078599096946366 0.6029356956520674 0  0.7052370439024317 1.068306765417033 0  -1.05159901841558 -1.31667629458267 0  1.334978933407335 -1.039224519405694 0  -0.6129191501411523 0.2050597607750981 0  0.5105005922635021 -0.3757371399857616 0  -1.576874187223187 -0.5577452884850631 0  -1.305152037857409 -1.064354581731526 0  0.2862590042423003 -1.260842058774658 0  0.5968831440066231 0.2476950682916001 0  -0.4087913375097276 1.178536771972009 0  -1.169509838666676 0.536372423180448 0  1.253305525297638 -0.3631452416388256 0  0.9783601087033266 -1.410237037466001 0  -1.32449817249125 0.02854071313806917 0  -0.8481973517151583 0.952614294924335 0  -0.538558181564801 -0.3858487139701466 0  -0.3979215880660415 -1.235645971029738 0  1.26503827487701 0.1092892274344168 0  -0.01115069991805034 -0.6238385570816296 0  1.016518437679134 -0.7991402389510286 0  0.7354229419297886 1.554370530386182 0  -0.008272807279095094 0.3269727160214716 0  0.5058899842929566 -1.656716016363576 0  -1.203754515257901 -0.4532218067445489 0  0.6833587290587844 -1.096552527401104 0  1.316401651251065 1.12439727896459 0  -0.1277369817626341 1.183729303537356 0  -0.1780794061133557 1.737630182406536 0  0.4176894098366348 1.114262623007545 0  -0.919680311116937 1.472275111370312 0  0.01354619289575669 -1.261097139799114 0  0.0001855615665256932 -1.742082725852057 0  0.8744412517052512 0.8225542397011382 0  1.601386460349594 0.6695905874826964 0  -1.434260873679118 0.9827266943810251 0  0.4781009619264174 1.667511948909568 0  -1.664328861888906 0.5105158600825471 0  1.15583332715978 0.3632156397638753 0  -1.186676615818562 0.260001543826226 0  1.732484131464152 -0.198147203324478 0  -0.9788446711691998 0.7181308266224505 0  -0.6895167354659183 -1.046560559362657 0  -1.716601553950533 -0.3385750655778221 0  -0.2654045717975186 0.6257458090873556 0  -0.02623126139904888 -0.2394055388248352 0  1.605595167170354 -0.6846227397587953 0  0.7728466398721207 -1.568523231321781 0  -0.8555754946481988 -1.544738918365848 0  -0.2765885440829481 -1.728048697691475 0  -1.505351499590362 -0.89898172618006 0  -0.9946518168139307 -0.7461586255194818 0  1.217218432681561 -1.26259658034989 0  1.085386343778042 -0.5657057002835874 0  -0.7245801570677745 -0.03513302131860224 0  0.3254724387030827 0.6209148710287559 0  0.7335057490056219 -0.02428056792364548 0  -0.2309765824901042 -0.09207410400129687 0  -0.2200570091963134 0.1514920333995545 0  -1.209965113267877 -0.2078881809469894 0  -0.5454280587250155 0.4488534212856845 0  0.3715123240773753 -0.5815756025020654 0  0.3273024472007935 -0.2053841467757168 0  0.2630173195988014 0.1275749768736009 0  -0.6251649075016429 1.057598141425141 0  1.236969762452092 -0.1315597053844296 0  0.8369362086906219 -0.9402049267098412 0  0.7369156713387273 1.315863403557101 0  -0.4081794316476025 -0.5799072409028956 0  0.5042341477368193 0.4633986553872582 0  -1.312383810249943 1.234218516109907 0  1.529042748997015 -0.9036868838594784 0  -0.7153038781612142 1.654396541996352 0  1.745828268630599 0.4389236117611556 0  0.4515837987614079 -1.115095345686158 0  -1.799843037292583 -0.1023045747208801 0  -1.785473734148479 0.2611934191275604 0  -0.2176715353030194 -0.6737119432128377 0  0.646266627316297 -0.2186573437344033 0  1.192774801059899 1.327062365917577 0  1.685753578830273 0.009993111000995106 0  -0.19283969522
[...]
<PointData  Scalars="f_1255-1"> 
<DataArray  type="Float64"  Name="f_1255-1"  format="ascii">3.7699650587510564e-01  3.7782936156142893e-01  3.6144344275488877e-01  3.8460132495541149e-01  3.9117386255837489e-01  4.1743327342471626e-01  4.6590758592513942e-01  4.6481064310068565e-01  4.9412944426417127e-01  4.9515674972593038e-01  4.7515967297171885e-01  4.9306466712455449e-01  4.9847933043543935e-01  5.0309608069518119e-01  5.0553889357818838e-01  4.8130467516210362e-01  4.8360479462587280e-01  4.9880942418036495e-01  4.9112174487567339e-01  4.8556606070405295e-01  4.9105808102402887e-01  5.0350258152265093e-01  4.7817961342761633e-01  4.7089185071263762e-01  4.1822283060335996e-01  3.8620615765080940e-01  3.7730276802786195e-01  3.7011317988581122e-01  3.7890851243614443e-01  3.8419122226718916e-01  3.7016360395565651e-01  3.6873798916083045e-01  4.0303174989223794e-01  3.8807821691536359e-01  4.0680266146294392e-01  3.9956247089562813e-01  4.1515478287095009e-01  4.1726003654848182e-01  4.0758474945102163e-01  4.2106297365557471e-01  4.0972207497147778e-01  4.3330407828415934e-01  4.0571118803321016e-01  4.2478932316585855e-01  4.1501800474250716e-01  4.2693771535630315e-01  4.1989230920534232e-01  4.1772661686894430e-01  4.1356472347859308e-01  4.0814385026183692e-01  4.2329143229639127e-01  4.0645964785667787e-01  4.0695407257629473e-01  3.9034988190815112e-01  3.9922969334525421e-01  3.8871048073432396e-01  3.8857815912930332e-01  3.8948754332026692e-01  -1.2977478634101536e-02  -8.9554838624465154e-03  -1.5327267765043080e-03  -2.9013005876146612e-03  7.9450136329549132e-03  1.9353980102063763e-02  -7.2612234225685010e-02  1.9135895305928206e-02  3.2310805911237916e-02  2.3597741075636999e-02  3.0905021707854474e-02  3.5115358481091034e-02  3.6263056956174218e-02  3.2584396576871795e-02  4.9996435998848898e-02  4.6804331637248481e-02  3.9231591012817618e-02  4.2251297899312722e-02  4.5767007114001078e-02  3.5547583598451331e-02  3.2073543132578451e-02  4.1272835077500236e-02  3.3974624436605566e-02  2.0467470853085330e-02  1.6314181101455494e-02  1.0583285757571555e-02  -6.1402423443686731e-03  1.0045081979725262e-02  7.1927839717198785e-04  -1.3360572980980067e-02  -1.8901183994595595e-02  -1.4350883442607021e-02  -3.0098264541102072e-02  -2.5717293787864134e-02  -1.9329293076604276e-02  -1.7072864294748490e-02  -1.2588032796587850e-02  -6.9245246247598858e-03  3.3255506776428668e-03  6.4037803943688895e-03  1.3300894300994235e-02  1.3704335048757493e-02  -5.3339110128636499e-02  1.9146088098176851e-02  3.6675333533207059e-02  2.9885888758723278e-02  2.9338295942957660e-02  3.1976230620626274e-02  -3.4040676265656981e-02  2.0531204604679054e-02  1.9995456549424213e-02  1.7725276389019679e-02  2.7055679091742873e-02  1.4682852665654490e-02  7.6694156591184141e-03  -4.8633189001695866e-03  -8.9115586083664433e-02  -2.1794196275695468e-02  -2.9349983404849629e-02  -2.5268624765790101e-02  -1.8256452662782124e-02  -1.8362587124702009e-02  8.9806870188147869e-01  9.3966107389916051e-02  8.9533792783984212e-02  8.6238889035902058e-02  7.4965875080079639e-02  6.8742160233495456e-02  5.1219043416641595e-02  4.6570460534416727e-02  3.3126043334773730e-02  3.0771117470447907e-02  7.5493175404715770e-02  3.4236181043878627e-02  8.1258253222107196e-02  3.7857817792504619e-02  7.3169859505128276e-02  6.1618570011915307e-02  8.8861210821098136e-01  8.8531283230023505e-01  8.6532641866898063e-01  8.6579984672189680e-01  9.5353303748828289e-01  5.8753981414914065e-02  9.5577390627420222e-01  7.8276744596061210e-02  6.2608096928839591e-02  6.0869943813558071e-02  9.1655672919464179e-02  8.8974865562333597e-02  8.9537878020676948e-02  7.7122675355901227e-02  5.5808988240642426e-02  3.6236554271933591e-02  2.8905682002186066e-02  8.0083391302949156e-02  4.0022832301564407e-02  7.5072160076953526e-02  8.5515484720935131e-01  8.4391505868946823e-02  5.9763313384655181e-02  4.4763288784964439e-02  8.5700864311863190e-01  9.2004704361534595e-01  2.9683951904275082e-02  4.6116264697271155e-02  8.0559403407094290e-02  8.5593179098549810e-01  8.7247980252456933e-02  5.5427995555233235e-02  2.2977096687298491e-02  6.3037054250057525e-02  3.8592959792161478e-02  8.2682566060797574e-02  9.1300378708770291e-01  7.8112735526636390e-02  4.1171271088211878e-02  9.8488593750463205e-01  5.1163807569943237e-02  8.4251417254445807e-02  8.7341373117517407e-01  7.2138131452122639e-02  2.9078189743610157e-02  7.2847206331594208e-02  6.8403404525750902e-02  1.0530315435899121e-01  8.9874575190379793e-02  9.8355273542424126e-02  8.0769151373097092e-02  8.8968644299140892e-02  7.5108927813651097e-02  7.5908363753835306e-02  5.1528832706769910e-02  6.2164643001853197e-02  8.6802297857641542e-02  4.5278430561442963e-02  5.0869668531772425e-02  4.4739863061405580e-02  2.7807259968845997e-02  7.2202177682772983e-02  8.0458082552843521e-02  2.6915454431067052e-02  8.3201530168184312e-01  9.3020751057206530e-01  2.8080897338766800e-02  6.7617541913053386e-02  6.5754546375670520e-02  7.4326698853075954e-02  3.4418910870974824e-02  5.8990612363852939e-02  5.2332835777511924e-02  2.4597471450604553e-02  8.4219017652842754e-01  8.2521483594217349e-01  8.3816005917050063e-01  9.0693483019920162e-01  8.8371379892459523e-01  4.0193725205878328e-02  8.3108448011652525e-01  9.6524797993071865e-01  9.1658982149104418e-01  8.8420559195301895e-01  9.1506110381062808e-02  3.7891418288776374e-02  7.6331734850864724e-02  8.5633674293545431e-02  9.6453211421430562e-01  8.3981487256173959e-01  6.8399497492994801e-02  3.3545474996267033e-02  8.3411337200534355e-02  4.1138864459371309e-02  9.5061156034622632e-02  2.7283085054759893e-02  3.5901720833319606e-02  9.7826747149029547e-01  8.7188824979242141e-01  7.2344900674093396e-02  3.3934929040891980e-02  8.7797286223219195e-02  9.8713547763879805e-01  9.1850651305340603e-01  7.1087911038629895e-02  8.3827354144884469e-01  7.1710861077991295e-02  7.7767782169922126e-02  8.1198660733424632e-02  7.8316841518208849e-02  6.6172501546717749e-02  4.7368824709127705e-02  8.9896842671618182e-02  8.8373963806656103e-02  4.8204031245112272e-02  8.7755196581290562e-01  9.1334049379524562e-01  8.0285264398274922e-02  5.7044078528569679e-02  4.3359298707517729e-02  8.5487681006158056e-02  6.9278601481016194e-02  5.0996900532024214e-02  8.6295929212243194e-01  9.3465085986922297e-02  8.4833713608484906e-02  9.1075532402431436e-02  7.6329883127190454e-02  8.1787309757737403e-02  9.1796861057103954e-02  5.7588644572991690e-02  6.0715091702912519e-02  5.3531557114345978e-02  9.5749196318012597e-01  6.7996829729530764e-02  4.0292583379012287e-02  9.2792467527789899e-02  3.0589745823303524e-02  8.0597570267419608e-02  8.3431887803849442e-02  8.6044042601527884e-02  7.9556831793992144e-01  9.1994805905917201e-02  8.0727440478284185e-01  1.5208416122001997e-01  5.3101572793397951e-02  6.0013914520570040e-02  7.1571173528697296e-02  7.8182914807082962e-02  8.7368177590521223e-01  7.9127503457885745e-02  7.7059507505574970e-02  1.2040785502433674e-01  5.4805578505224536e-02  4.6795820576718314e-02  3.4624311052619504e-02  5.3863995466462512e-02  3.6144939086712909e-02  6.9499495572335090e-02  3.0683067225347929e-02  3.0389181107756943e-02  5.5175023067099586e-02  3.3200629342924393e-02  4.0834623941738694e-02  9.0860138728864587e-02  3.4651615108145892e-02  2.2809274221934368e-02  2.1483660835662013e-02  2.1420684856805518e-02  3.0548759342165235e-02  2.8828090233776478e-02  1.4085382819566022e-01  1.3481780018800807e-01  1.1892320321316306e-01  8.6963988633001643e-02  3.3609262653106139e-02  4.2748567861500310e-02  7.8648833684631048e-01  1.1325316117306290e-01  8.3582860147217580e-02  7.8448251163654503e-01  2.6066368427270347e-02  1.2083092393242049e-01  7.8384999664835531e-01  8.3469330384880502e-01  9.4166164193083968e-01  3.8546276276395765e-02  6.3510145230446416e-02  7.1103481159564982e-02  4.6044527094681743e-02  6.0055629082174190e-02  7.4201288613399058e-02  8.9868686429420419e-01  7.2680352925358752e-02  8.6448972530163259e-01  8.0643260763587188e-01  1.0608816568398918e-01  6.8475897637160221e-02  7.7191391946031654e-02  2.8390044413962996e-02  2.9600711011549308e-02  7.9883126972152635e-02  8.6234865533144289e-01  2.1050505165321174e-02  7.5390682603879877e-02  1.4699953667951976e-01  9.2902406822815797e-01  2.3897491373792139e-02  2.8346734230636543e-02  7.9003819565356237e-02  9.4232387574680077e-01  4.1823770744346102e-02  7.6384023472959875e-02  8.7572598279029312e-01  9.7064074496845520e-01  4.3761957728344222e-02  8.4212471058652191e-02  6.6954910582210730e-02  1.4807052535460835e-01  3.7923379065653420e-02  2.5036009682840941e-02  2.4182159385554028e-02  6.1741459853771864e-02  9.5168860013912102e-02  1.3564833000029589e-01  6.9898785285551254e-02  8.1837387397595635e-02  8.0312561984734424e-02  3.5199137568161565e-02  4.1034252814296339e-02  8.6599578389414122e-01  9.1027319570701637e-01  9.7355543762428287e-01  1.1455415059179065e-01  7.0717769978214023e-02  9.0162248776200304e-01  5.0828121491107388e-02  9.4399814031687057e-01  1.3245489061026525e-01  3.1680407241519278e-02  1.4512201123582164e-01  3.9555083535967907e-02  6.5763981863449741e-02  6.6786965611267332e-02  3.0225838814220730e-02  4.2660100085914560e-02  4.4793085225021359e-02  8.7018874529749635e-01  8.1623505398280213e-02  1.2872408605922905e-01  8.9574473983599703e-02  7.6964444703386647e-01  7.4103245971675047e-01  8.5375417000408427e-01  7.3113753509637849e-02  5.1433827914303669e-02  7.9318802724629836e-02  6.1912420686625273e-02  8.8439964377975477e-01  9.3148272168433521e-02  1.0253332121479970e-01  8.7565584947265365e-02  7.8784318087126021e-02  1.6338377615853258e-01  8.6701077751559741e-01  9.3707298582435838e-01  7.5851332965763685e-02  5.2732398363998199e-02  3.4381584624863008e-02  8.9171361789443648e-01  6.9389564340185825e-02  8.8702573474041146e-01  6.5750661316303846e-02  5.6885545325842307e-02  4.1393449804439007e-02  1.4278691497898208e-01  9.7700222768054146e-01  8.0102465861094785e-01  6.1593961190171527e-02  7.8179148904082577e-02  3.6272620567471818e-02  7.4430641574292855e-01  2.2625256580814327e-02  8.6252561147771162e-02  8.9519605660447288e-01  9.2474643445383128e-02  6.4282316708139414e-02  7.8616799479658800e-02  1.3975364390906062e-01  8.7157386380794089e-01  4.9660561677719650e-02  3.2016117913545902e-02  8.5174761909332430e-01  8.7527041026597988e-02  8.3623709519706699e-02  8.9140398016254493e-02  9.2997232970932775e-01  6.6055888527963208e-02  7.4907212492301534e-02  7.5995211264977658e-02  3.0043304042226746e-02  5.9439181032961683e-02  1.5752451052170638e-01  8.3348626289262970e-02  8.7300830503941595e-01  7.2744462580271008e-01  6.9910376754721795e-02  7.8425457174365873e-02  7.1833674011863669e-01  9.1573147352079831e-02  4.7905435929419038e-02  8.8770682447553401e-02  5.9551986610130170e-02  8.3940752420192763e-02  8.5776900789145544e-02  9.1281876545579677e-01  9.4577524814455249e-01  7.6648751845689353e-02  7.2280744417928172e-02  7.3435154731803939e-02  8.1585628808454866e-02  8.9964509853706340e-02  1.3405101343142578e-01  8.9051891585019277e-02  1.7067993667285747e-01  6.6322086860975349e-02  1.1503482943594184e-01  -1.5197261872605091e-02  1.3545525819106397e-01  6.1814582161149323e-02  9.2602322135753562e-02  1.4224591052347985e-01  8.9829483560942847e-01  9.4957239914951891e-02  7.0834717058053265e-01  7.3391380316057619e-01  1.4667470169389804e-01  1.4014680082462237e-02  3.8789208627788493e-02  5.2288161119898369e-02  3.2865383230892935e-02  8.9252460608319262e-02  1.7048950970699484e-01  5.3814286853573180e-02  4.8237255323027951e-02  8.6785143572470436e-01  6.8544031733802066e-02  6.5804512629132825e-02  1.0010585019332709e-01  7.8336320404844284e-02  5.6131118675891836e-02  6.7932981614080359e-02  9.2044413662015351e-02  1.9507671630006034e-02  -1.3576936350666178e-02  1.5114940099600590e-02  1.4553013611716567e-01  4.1692194772597911e-02  5.0952610076621573e-02  9.2706420655347621e-02  5.7245000784020443e-02  9.3917744753670085e-01  8.4999409528573433e-01  9.5881964774808301e-02  8.7307466357700014e-01  -1.4095728660335410e-02  2.1831692908831007e-02  7.0531058943023994e-01  4.8615038530441440e-02  7.5219483341252891e-02  2.2096194231871820e-02  7.4246319642417319e-02  9.7268771398649290e-01  8.3825877589096279e-02  3.1997479584715084e-02  9.2273958764991365e-02  8.7049021702602669e-01  6.2812281507429388e-02  5.6758955299727909e-02  5.2740397931256094e-02  7.2569642149709915e-02  8.8622692765970257e-01  6.9617210739214355e-02  3.8972731170402800e-02  7.1268113759825419e-02  3.8573641551163315e-02  6.9348185368982240e-01  2.7660948346770377e-02  3.0820361859940529e-02  9.1838066496917325e-01  8.9623827352815089e-01  3.9490959992493517e-02  2.8506383205353075e-02  8.7288485917834405e-02  4.3567823537659922e-02  3.8481763853432424e-02  3.4652749871945644e-02  7.8412406018947486e-02  4.3619799840292142e-02  1.1608779672233203e-01  9.0280474558834201e-01  7.3140167025354541e-01  8.8946001557552085e-02  2.8133268831708587e-02  1.3049022050719422e-01  9.4083989954428981e-01  2.8306075218031350e-02  6.0523139927301101e-02  8.6058021205810087e-01  9.6487544683562132e-01  9.5922925577495610e-01  8.4412535533369207e-02  6.6214132137493914e-02  5.3148067295690139e-02  6.9029043023182779e-01  8.5814522021277073e-01  8.9056846117380489e-02  6.8430417600464455e-01  8.6758939048968553e-01  3.7746660788872247e-02  8.1831383598877649e-02  7.9314987574160734e-01  1.5154479740291277e-01  6.2405530687612933e-02  3.0681070363331113e-02  7.5433398953868677e-02  4.8021351072228678e-02  6.5693597363912698e-02  5.9305930350700427e-02  8.5115227834222082e-02  9.0000286804710983e-01  4.8604387608934742e-02  1.4212602414402675e-01  8.0909998143353423e-02  2.3023137915179192e-02  8.4909537264097401e-01  6.8648142385091482e-01  6.1916578324344176e-02  7.4027167446648681e-02  3.1152561446830151e-02  9.2926139027837973e-02  8.8924061516248057e-02  8.3401812821051868e-01  3.5036426554740797e-02  8.4024825363758904e-01  7.2243501991692091e-02  3.7189280312723526e-02  5.0882655675334655e-02  8.4153097473122884e-02  8.6344390517229397e-01  7.9072111443321269e-02  8.7623967174094583e-02  9.5773980878999543e-01  9.1860268445750473e-02  8.0451618802717728e-02  8.1329856311030707e-02  3.8639304008595686e-02  2.3622080997494979e-02  1.3976111924541701e-01  8.2944864876744864e-02  8.7710023961857259e-02  1.7443181831693860e-01  8.6621114113307252e-01  8.6289568326264610e-02  7.4079533426217328e-02  7.7168920598088692e-02  7.1597859334342498e-02  3.3295963130541464e-02  8.9645455739888330e-02  8.0436623510525462e-01  6.5623515711503100e-01  3.9851395211024876e-02  1.8711815409072453e-02  8.5390033725151682e-01  8.4487215989723496e-01  8.6013528434186892e-01  3.6831796969335896e-02  7.8259237121960826e-02  8.6997806538238784e-02  7.0546239684348214e-02  9.3637341635077687e-01  5.8176453221143287e-02  4.2511091444947212e-02  1.2013569912051250e-01  2.0240437832340299e-01  7.1292748710634499e-02  2.9775004432901854e-02  1.8881746646011463e-01  6.3170959578698671e-02  7.8753453703034951e-02  7.1700000778689182e-02  1.7971931570510108e-01  3.8843980179506292e-02  4.1478755850222600e-02  3.2141731956991937e-02  9.5311438372233370e-01  8.0917878161540813e-01  6.1415179811974543e-02  6.5767587280224457e-02  7.2836942542142916e-02  6.1698646206325841e-02  4.6291724217143657e-02  6.7357006486889082e-01  7.6576883296890511e-02  7.7908219111209112e-02  7.9495902613551578e-02  8.9921188122892015e-02  8.7988352192874886e-01  7.3954520762135822e-02  9.2029765525124166e-02  7.0217328844400728e-01  3.1704699655248358e-02  2.2592506221607158e-02  2.1461816597259140e-02  7.9609342755796716e-02  6.7392207690876407e-02  7.2582532670375649e-02  8.2140122033332297e-01  9.2207024105204038e-01  2.8641037730732580e-02  2.7356043999108279e-02  3.1720771142342896e-02  3.6366732331238653e-02  7.5625830010634540e-02  4.7187040748068981e-02  6.4553551504153969e-02  4.5831700928609484e-02  8.7698863679688943e-01  7.2269483101497792e-02  4.4795525292626599e-02  9.2747848956528545e-02  2.9263942726053722e-02  8.3119280240516805e-02  6.3206321151981137e-01  6.8670048158144537e-02  2.8214918023771445e-02  6.5594920281210523e-01  5.9813673022639603e-02  8.2622611670622279e-02  7.5137990234415353e-01  5.8758259883110148e-02  5.6102930115032930e-02  6.9264835896739374e-02  8.2927882977602160e-02  8.9941682907293063e-01  8.9271411589307015e-02  9.8957231307593863e-01  1.4309907009370515e-01  4.1213478609639129e-02  8.0890947279144448e-02  1.7105110128195400e-01  3.4386353798091671e-02  8.5977526899227319e-01  7.2602478829148470e-02  8.0813756550254057e-01  4.6068606368751305e-02  3.0490428626611357e-02  7.3675597450683278e-02  3.5085065377390146e-02  8.5529782393651888e-02  5.7294486897292794e-02  7.2472655727690086e-02  6.8607935484087099e-02  6.7519787754548477e-02  4.3640646853413401e-02  5.5124957588214452e-02  4.5794492453564137e-02  6.3523363720474213e-01  6.5148378289346054e-02  8.6548815892107334e-02  7.5346603481750804e-02  9.0842446885039271e-02  8.2319167115010222e-02  7.8904772756443919e-02  5.0050181618381831e-02  8.9456115497841340e-02  7.1253616578168227e-02  6.6728048182198060e-02  1.7590266431900944e-01  7.6101555081651584e-01  5.3213133939556449e-02  4.1544882843913999e-02  8.0804271991506271e-01  9.8692704817679666e-01  9.7890107725403797e-01  1.2841030336639375e-01  6.6731869715400891e-02  9.9566567297480743e-02  8.5143848672965650e-01  9.3134286462262503e-02  1.6526435607190793e-01  5.7821573502794266e-02  7.8192342962685027e-02  8.2682733407242567e-02  8.0555569021235632e-02  5.5482511111069666e-02  9.4156703706549133e-02  9.2904072818870517e-02  7.2970659699837093e-01  7.9805806361531478e-02  6.1054741322420024e-02  1.9637893834973483e-01  5.2524180253246448e-02  7.4319074147231781e-02  9.1744467315400646e-02  4.6951229467258902e-02  2.5848247995989077e-02  3.1624247938300008e-02  7.4600321790866606e-02  5.2728586973288624e-02  4.2319714020187846e-02  1.2965497498681982e-02  6.4346450090185761e-02  4.7512256865733973e-02  9.0326987411195880e-01  6.7817889191855246e-02  9.1535070741927471e-01  9.2434724817198743e-01  8.7007375792793373e-01  8.8372468286430605e-01  8.8075316981180041e-01  2.0031792890389352e-01  8.3537925360050017e-02  2.1677727305584666e-02  4.6256299567302102e-02  6.3245270750103444e-02  6.2070410814055114e-02  6.7678069278550260e-02  2.7315128013222244e-02  4.7892564761968993e-02  7.9163876035361591e-01  2.2380499792483896e-01  9.4652917704790659e-02  3.2865802503030131e-02  8.5512342784103357e-01  7.8699549391428841e-02  7.6730230461286811e-02  7.8019517321331694e-02  7.9321961001275823e-02  4.9803242913666675e-02  5.2958412733704774e-02  5.6590876083374805e-02  9.2610667266755975e-01  7.4400261271401660e-02  1.9670576426993897e-01  5.1151198987558627e-02  5.3160731061878033e-02  8.1647570606833336e-02  9.0451907895011363e-01  9.1599782756832904e-01  7.1103423832353185e-02  2.2309643432132609e-01  </DataArray> 
</PointData> 
</Piece>
</UnstructuredGrid>
</VTKFile>