<?xml version="1.0"?>
<VTKFile type="UnstructuredGrid"  version="0.1"  >
<UnstructuredGrid>
<Piece  NumberOfPoints="678" NumberOfCells="1275">
<Points>
<DataArray  type="Float64"  NumberOfComponents="3"  format="ascii">-0.9259185207869065 -0.1330817177461566 0  -0.9169509746680287 -0.2326824662121668 0  -0.8977037403214696 -0.3294601214670945 0  -0.867884805586579 -0.424606332998787 0  -0.8282510443745568 -0.5154986773753973 0  -0.7798024550624808 -0.6007303755805102 0  -0.722858547369148 -0.6801355885065379 0  -0.6574669447152394 -0.7535308166694337 0  -0.5848369386066615 -0.8194185979384545 0  -0.5066401875776186 -0.8767354604584655 0  -0.421921459476988 -0.9258726592867561 0  -0.3325712189089298 -0.9657933499257398 0  -0.2405681829881426 -0.9957847346051787 0  -0.1455715497561566 -1.016028575593282 0  -0.04811441438426042 -1.026269772399465 0  0.04866374357785557 -1.02639814397118 0  0.1453700284674133 -1.016247023240323 0  0.2408198371114354 -0.9958656726765082 0  0.3338530020467714 -0.9654261843501389 0  0.421520307126394 -0.9260513445702246 0  0.5063864392243209 -0.8768356207956982 0  0.5856914737225751 -0.8188204225537143 0  0.6577223366927771 -0.7532857440509341 0  0.7226033408946376 -0.6805306824846055 0  0.7798475911822467 -0.6008609325168863 0  0.8289054397268436 -0.5144820957810579 0  0.8680506463999322 -0.4243952094118714 0  0.8976144556742214 -0.3299876920422856 0  0.9171479250588362 -0.231578156196299 0  0.9258604684175631 -0.1316122367803369 0  0.9239451897405992 -0.03145845953040825 0  0.9110019698872669 0.06874611945433394 0  0.8873028692982801 0.1669123709988197 0  0.852689144033227 0.2626094073899545 0  0.8074486401794546 0.3545939563557226 0  0.7520264361811384 0.4413562532206232 0  0.6877562416063623 0.5209220672561483 0  0.6144121662313112 0.5935756605194843 0  0.5330541414110489 0.6577470863109062 0  0.4454694006530511 0.7121768430162428 0  0.3525397410142577 0.7566033408141056 0  0.2546413996216249 0.790617665444534 0  0.1540957054931496 0.8133285731198182 0  0.05176088993770585 0.8248933883420612 0  -0.05160478319985028 0.8248157795047592 0  -0.1548437623853468 0.8132652364128243 0  -0.2545696684042253 0.7906014307804072 0  -0.3528251170330728 0.7565286907093448 0  -0.446219553923258 0.7118944431394567 0  -0.5335103135115332 0.657416231815744 0  -0.6137338076384179 0.5940055716653605 0  -0.6877321802207281 0.520799716618297 0  -0.7521053081177431 0.4410776374542253 0  -0.8069514197174824 0.3554566594156677 0  -0.8524227589301431 0.2633529529326664 0  -0.8874067677931553 0.166542004925249 0  -0.911156931865965 0.06847719677927529 0  -0.9240214717404978 -0.03173689136452565 0  -1.842102517231756 0.1012364315412032 0  -1.842100651098008 -0.101241373910164 0  -1.819670663795203 -0.3039818824735594 0  -1.775299914545951 -0.5019663599991917 0  -1.709288823841991 -0.6942608650110721 0  -1.62254207941907 -0.8780752804182884 0  -1.516103610688424 -1.051238361826693 0  -1.391222854040825 -1.211673885527635 0  -1.249753534287354 -1.357098936145948 0  -1.092588733453018 -1.486513186983295 0  -0.9224264669221258 -1.597686648044847 0  -0.741061711082955 -1.689468221146996 0  -0.5504096728710159 -1.760865489586739 0  -0.3536856261870776 -1.810676120535841 0  -0.1526786504758735 -1.838555925891836 0  0.05082947731809548 -1.844137604377776 0  0.2534079335343796 -1.827363911014032 0  0.4532185291404958 -1.788347652790933 0  0.6468502776828523 -1.727784032667814 0  0.8330399158158192 -1.646120084104912 0  1.009063971528091 -1.54448947376828 0  1.172847479956968 -1.424111851937605 0  1.322390984917925 -1.286447635584766 0  1.4559079052846 -1.133129991759344 0  1.571523091081537 -0.9663991261437433 0  1.668575658757367 -0.787058361646092 0  1.744934754445657 -0.5990380522944451 0  1.8001611186663 -0.4037659418761633 0  1.83364466063618 -0.2029459693283894 0  1.844881204099152 0.0003952820449371961 0  1.833727822178271 0.2025605017390163 0  1.800161647086944 0.403761205692563 0  1.744935990840886 0.5990345346029751 0  1.668579206852431 0.787058569150566 0  1.57166725247755 0.9660936393204754 0  1.455849622231408 1.1331365283592 0  1.322155238566387 1.286670723911395 0  1.172845297239335 1.424107030552193 0  1.009336428626114 1.544296702968004 0  0.8330078362411273 1.646065103836017 0  0.6465739020831585 1.727873991843859 0  0.4529370993755024 1.788437085501152 0  0.253404469528816 1.827421087057325 0  0.05079368730724112 1.844201670685882 0  -0.1520188179540761 1.838613278628304 0  -0.3540128083722155 1.810602491236786 0  -0.550687283995837 1.760797397187723 0  -0.741132447771564 1.689492324963751 0  -0.922149540284332 1.59788774205681 0  -1.092580724316778 1.486507806280701 0  -1.249754533374432 1.357101829834171 0  -1.391249538492713 1.211639505126323 0  -1.515900476439385 1.051500637595577 0  -1.622688469016453 0.877772799231415 0  -1.709272642589369 0.6942956123874782 0  -1.775301608054435 0.5019597007958695 0  -1.819668750804813 0.3039844131132887 0  0.0001771114496275754 -0.08117106508931089 0  -0.1855706938681781 1.325582330366643 0  0.3246289167517438 1.295242823017811 0  -0.7457033532807601 1.118787373838282 0  0.7859193952371303 1.09308613337738 0  -1.165969513460922 0.7048772000051242 0  1.177411768851659 0.6778926160199875 0  -1.351885512460727 0.2548341744149678 0  -0.04906463310179227 -0.5477675538007619 0  -0.4262517097546505 -0.2658234504154313 0  0.3675846965151343 -0.3662340615550105 0  -0.3244608827191256 0.2452486736837233 0  0.1514241102498494 0.3513446458953 0  1.355295164122316 0.2435739550056199 0  1.379525112544166 -0.2430706638033922 0  -1.365876968079735 -0.3193766967843506 0  1.241361695261465 -0.6856526661328914 0  -1.198956754099858 -0.7571546819257583 0  -0.920002278218809 -1.093587811418808 0  0.9626411315354739 -1.06074749909176 0  0.5730433299715603 -1.322260952538894 0  -0.5007757824445066 -1.354088192183387 0  0.1424195276059625 -1.434883011064923 0  0.4889841388273929 0.03693208826730002 0  -0.5304966579201886 1.408787304641288 0  -0.1740590697535877 -1.357382221937723 0  -1.086320345786811 1.049294485675538 0  0.6380014852923424 1.388502160418512 0  1.163695040375916 1.005916036353266 0  -1.524356780159015 -0.023237458137692 0  0.1283816009436577 1.543355029395806 0  -0.35990371192885 -0.5807787984640632 0  -0.6038790024389522 -0.008200789857208809 0  -0.1345824145729173 0.5030426298038552 0  0.2528801588214754 -0.6554234229341565 0  -0.4154681814808239 1.08095369677952 0  -1.222143040479491 -0.06438374866303218 0  -0.8577336096757205 0.8065768235460979 0  1.448118861128517 0.5412661953830047 0  0.87618844082505 0.7791526726019787 0  0.4591716056173121 0.3341258487469783 0  -1.434352608124164 0.5582503112582702 0  1.546195884119767 0.01489612254492571 0  0.0001072459541665982 1.103495284780465 0  0.5158571007534708 0.9896998007244234 0  0.6241653895940296 -0.2841216074408037 0  -1.107259425187838 0.4099028744069925 0  -0.3405618447151741 -0.01441377202451363 0  1.474506292565478 -0.5095990744473861 0  1.11101669933742 0.3898926100553963 0  -1.441586445441476 -0.5928890404177092 0  -0.3136522823164158 1.555820941728765 0  0.268070497000004 -0.1112624118712175 0  0.2575185162828366 1.043712436242792 0  1.014286354861987 1.220880062493711 0  -0.8736573707581488 -1.346441264650712 0  0.4253048228538954 1.535219039018329 0  -0.8815130405657529 1.343445365518793 0  -0.6149750802155208 0.8956018956084056 0  1.187448872751314 -0.06281083887950586 0  1.231848543327148 -0.9639663038741443 0  -0.5749649724681085 0.2752469148861309 0  -1.190628234682732 -1.027586897336391 0  -0.06140914428703782 -1.596227689028478 0  -0.6443047000233166 -1.123866705968698 0  1.139590022014315 -0.4438615924571439 0  0.9825967166756506 -0.7918210380986314 0  -1.141708613285724 -0.4926764414301839 0  0.8538198428930128 -1.313857842701778 0  -1.37925764825385 0.8423564918253336 0  0.2587336681176867 0.1323856846271891 0  1.355927416115917 0.8542501513197736 0  -1.576096939774149 0.3625924295472281 0  -0.2192129555241517 -0.3798829613423442 0  -0.08058706325039378 0.2743209811691032 0  0.3978759591551045 -1.524994430604256 0  -0.3449315856347632 -1.55579715157575 0  1.600530145114649 0.2540718828905421 0  -0.1896054138867612 -0.7500978858869694 0  -0.568340202803007 -0.4706055288838366 0  -0.6657264957510743 -0.24676141064368 0  0.04717837487804537 -0.7754149457715469 0  -0.4147938825024596 0.4584493816680941 0  0.3103927579760461 0.5232787609016134 0  0.6907436345437893 -1.084793395469382 0  0.5186295580917577 -0.554609266914699 0  0.002876714896393536 -0.3161050924182787 0  -1.132648773516045 0.1491776791475461 0  -0.9426296329513326 -0.8363535490468099 0  -0.9430786475877715 0.5794096192196486 0  1.134082649635509 0.1586967607039229 0  0.9724084067849882 0.569576449997074 0  0.3220778255570435 -1.251044124603967 0  1.595631494818706 -0.3156649486281899 0  0.0960419299124501 1.31382829177824 0  -1.595521976071698 -0.2445818546498652 0  0.6702321815807555 0.1498980114127471 0  0.6900348266904942 -0.07353272455448105 0  -0.09329964963337006 1.530307391776909 0  0.08227090033782365 0.597995838821868 0  -1.13811455446477 -0.2737539682253319 0  -1.398637202842248 -0.8661427827112912 0  1.461092176809936 -0.7248483653906747 0  -0.3295941027853333 -1.205149584837761 0  0.1425630291824352 -0.4730546131112689 0  1.155923332320218 -1.158542599557094 0  0.8084792098803573 -0.9078141022815196 0  -0.7550704788424702 -0.9521768996440918 0  -1.098369266055247 -1.213907151436791 0  0.703824830279923 0.8969656967866629 0  -0.2046177863451151 1.021385619794904 0  0.6036640504393082 -1.528807532206901 0  0.4816460608653418 -1.128471099714344 0  0.8601664073050084 1.383131907612255 0  0.5201533534535078 1.207079253486498 0  -0.6935011505234396 -1.474577243643037 0  0.1415681582928677 -1.650008355833038 0  0.01597267485050603 -1.249544736744769 0  -0.9956647838706354 -0.6417910389961172 0  0.4623626353024183 -0.159440886861911 0  -0.185907986313628 0.1095870936578648 0  -0.1949197927973633 -0.1661541434798957 0  1.05313
[...]
<PointData  Scalars="f_277-1"> 
<DataArray  type="Float64"  Name="f_277-1"  format="ascii">5.0814026249460298e-01  5.1595611386461038e-01  5.1370008627608499e-01  5.2690466884589826e-01  5.2488784409443356e-01  5.3433508159722976e-01  5.4417830742503648e-01  5.3364513007897574e-01  5.2974865366018475e-01  5.5096842362593479e-01  5.2716100799596743e-01  5.4949958358905482e-01  5.2803314848694693e-01  5.2709492313105988e-01  5.3281407655977886e-01  5.3613520204405485e-01  5.5227001373781570e-01  5.2740960194261077e-01  5.4042326349739933e-01  5.2754131032119889e-01  5.4554931206099222e-01  5.4779580408232798e-01  5.2925586845543970e-01  5.4089416821222280e-01  5.3208400895931085e-01  5.2353486612566569e-01  5.2672076960596081e-01  5.1514520450555257e-01  4.9790713959312000e-01  5.1943456166197977e-01  5.0382173380457262e-01  5.0014451222429857e-01  4.9842251733598192e-01  4.9763170912102128e-01  4.9675143864869276e-01  4.7656655717381513e-01  4.8830125310359096e-01  4.9374269902655188e-01  4.9928403766012902e-01  4.8742748815185405e-01  4.9006757665007750e-01  4.9829086352592750e-01  4.7952965968388633e-01  4.9784259822101440e-01  4.9146895222096182e-01  4.8043861458324622e-01  4.7540161999030522e-01  4.9779012452456983e-01  4.9808791657843560e-01  4.7423225459446550e-01  4.8891434294951597e-01  4.9212258091183225e-01  4.8691147188116718e-01  4.8770810606906040e-01  5.0220030959658479e-01  4.8829028795631352e-01  5.0362221547154440e-01  5.0057926693056387e-01  1.1577746514269556e-02  4.2221171699420657e-03  8.7361905715412462e-03  2.3850681330582532e-02  1.4000242428914260e-02  8.8713916282259983e-03  1.5987265712206288e-02  1.5757693326829587e-02  4.6453763186666492e-03  -1.4344089013427323e-02  -1.5843404267922821e-02  -1.0246129387273336e-02  -5.7363434784770172e-03  4.6394451679142258e-03  -4.9203252186510883e-03  -7.3396384762032862e-02  -1.4117441638128347e-02  -6.2611470841420691e-03  5.0009563203244969e-03  1.1970879641967006e-02  5.5685290294225148e-03  1.4042383664847268e-02  9.2715066403869176e-03  1.0652676092959617e-02  1.8652804942199935e-02  5.7777666204197123e-03  1.4549110439683717e-02  9.7042132181821544e-03  -5.2497408281187173e-02  8.0171772793239549e-03  1.0504625977133260e-02  1.0538701540152963e-02  1.8884782051215007e-02  2.5456314432398749e-02  -7.1876673531553262e-03  1.7654613421196154e-02  2.6930492172247432e-02  2.5157312335441766e-02  2.3415105336197881e-02  -5.1590783033233494e-02  2.3955335342151770e-02  2.8691010747854438e-02  3.8519751499054046e-02  3.1824128987341126e-02  2.7231193814776383e-02  2.3761132733671871e-02  3.1148452009534408e-02  2.9954975004292464e-02  2.2354986273875992e-02  -4.7019332783474678e-02  2.1765735351984075e-02  2.4174043535682095e-02  1.6365576261954676e-02  1.6781825167825799e-02  2.2066411204105626e-02  1.8485240015604240e-02  1.1346166724717487e-02  1.0960752274671537e+00  7.5934749724683892e-02  7.5787817826401177e-02  7.3477095076053420e-02  7.4056354890030832e-02  6.7376219735393053e-02  6.8749905562701330e-02  6.5414200786221260e-02  1.1370151562087671e+00  1.1126166452524022e+00  1.1224630678145395e+00  1.0654324258283965e+00  1.0572262488077231e+00  6.4306363345226103e-02  6.3464608334937486e-02  6.2480453883662503e-02  6.2826119134064259e-02  6.0980867789214660e-02  5.9049894752659579e-02  5.8873014798462665e-02  5.4639532837447609e-02  5.4583020352945828e-02  5.1994940158356463e-02  1.0805914112083441e+00  7.4502514991885302e-02  5.9157853552338116e-02  7.0153965848207392e-02  7.3664304778981907e-02  6.8620227303850326e-02  6.2481123534211744e-02  7.4257647556825096e-02  1.1308995491435609e+00  1.0699814621632480e+00  1.0347490901913394e+00  1.1395599187780665e+00  7.8322675417371992e-02  7.2767492296558919e-02  7.4397204987154103e-02  6.4421065189234045e-02  6.5535515556672641e-02  1.0466773503101783e+00  6.5326913566506814e-02  6.1376029103372837e-02  8.2742511620197273e-02  7.7677241052150500e-02  1.1013611905866381e+00  8.3732832806722030e-02  1.0883455292893331e+00  6.0295351321309275e-02  7.9547968506524985e-02  5.8788873591859379e-02  7.2997639451884963e-02  1.0978108647909000e+00  8.1363237659799900e-02  6.9261984319431646e-02  5.1026509227375685e-02  7.2139342186633440e-02  6.9636453069681178e-02  7.6634217034449365e-02  7.4774876861683923e-02  5.7575645642096336e-02  1.0171340597130871e+00  5.6744562021526557e-02  4.7319977020360338e-02  7.0447664478647767e-02  6.7920552296494810e-02  7.1533638444210720e-02  8.0962297325214524e-02  5.3226985964994818e-02  6.4594277293131983e-02  1.0754188960129014e+00  6.4384498860732539e-02  6.1389416445928865e-02  1.1244136705542083e+00  1.0642258508961016e+00  4.9432796971746476e-02  4.8049397401292299e-02  5.9934161297122507e-02  1.1289294068751896e+00  1.1076889341943839e+00  1.0704994715048177e+00  1.1380504246295957e+00  1.0146448694638650e+00  1.0137132300555793e+00  7.4969227757418808e-02  1.1033150227925796e+00  1.1182514172200833e+00  7.0124437294591446e-02  8.4652979418226415e-02  9.2137987524716886e-02  7.0462805968064410e-02  8.2071764172334777e-02  7.5524469896080984e-02  5.8405878427234985e-02  7.6776449988888232e-02  5.8041672021263174e-02  1.0148795608393260e+00  1.0533999239352843e+00  7.4641033089490424e-02  9.9270596111038101e-01  7.9789138396893652e-02  5.4866413775360681e-02  5.6037711721112396e-02  7.1236741545360208e-02  1.1332066002869803e+00  5.2763050472962217e-02  8.8437123142537460e-02  8.1817104551504552e-02  5.2783261847767798e-02  8.5030690985438126e-02  9.8752987892385638e-02  4.6944462381422317e-02  7.2683297862122104e-02  6.9537914020298533e-02  7.4812863970444898e-02  4.8697770806624130e-02  4.4589153864380705e-02  8.3394814021893693e-02  8.2256100503031324e-02  1.0955153978946477e+00  1.0782777684481302e+00  1.1038597602581119e+00  8.5479715053891306e-02  7.2438017237669877e-02  1.4405262633784338e-01  1.1152920498831904e+00  5.8956153922054111e-02  5.8754392879867529e-02  5.4564656776750584e-02  1.0742952238844017e+00  1.0788570342438670e+00  6.6928244448887481e-02  6.7663407780717499e-02  6.0380048658685098e-02  6.2906670871892112e-02  5.5311388358230559e-02  6.7536848191369181e-02  6.9613420947443230e-02  4.7836498962655967e-02  7.4012016281563814e-02  6.2615086645044754e-02  6.9054384145839115e-02  7.5960677960897172e-02  7.5858640297753854e-02  6.8075302286873612e-02  7.2087397308788104e-02  7.0569665297873882e-02  6.6256844330920148e-02  5.9209852611471547e-02  5.5881774709339707e-02  6.9352986462319563e-02  6.3691302683247381e-02  4.3317377262436230e-02  1.0875304700573176e+00  1.0743198529937572e+00  1.0897642846088769e+00  1.0310223471692621e+00  1.0075278741220031e+00  9.6023434895569648e-01  5.3171065291369057e-02  5.5679364571764034e-02  6.7280603391436322e-02  6.8626031127707710e-02  5.4037163661829007e-02  4.2393712534469011e-02  6.3768095561885382e-02  4.5969829715988224e-02  5.3287443433590875e-02  5.6222068496336770e-02  1.0817873803725597e+00  1.0636543249214225e+00  1.5295772308315783e-01  7.1175362273409565e-02  7.5712374004647559e-02  1.5692493162725890e-01  6.4196083294687442e-02  6.6581469516388936e-02  4.7767324257563831e-02  5.2230590952879560e-02  1.5898492124872290e-01  6.4411455597269587e-02  6.3594495063402021e-02  9.5889767056235020e-01  6.0285939336841510e-02  6.8371679968785709e-02  5.3878622483339390e-02  7.0215094615445006e-02  7.4031487003607760e-02  7.5320159721116275e-02  1.3419823751476484e-01  6.4205821714030192e-02  1.0500594333533950e+00  1.1420178700105794e+00  1.1263157065573102e+00  1.0972997447632544e+00  1.0520673617960861e+00  5.2997113171995340e-02  4.8415254849705561e-02  6.1659621065054071e-02  6.3672844038228815e-02  1.4446575058915120e-01  1.0559847460951528e+00  1.2190535245690601e-01  6.5623848735248000e-02  9.7803319629505103e-01  6.7239974182282877e-02  6.7930112339401744e-02  1.1460364924785105e+00  6.7751719634329313e-02  9.1569247341405802e-01  1.1342164951859293e+00  7.3116845354191329e-02  6.9538531605170387e-02  7.6357116846831177e-02  1.3753399121642820e-01  1.0077514391116595e+00  1.3472317535384545e-01  7.6151416150679954e-02  1.0789996415585701e+00  5.7228003615032420e-02  6.1450904765938459e-02  1.4217303080977786e-01  6.7310225365937795e-02  5.4537994858385251e-02  6.8962667898656349e-02  1.0623975850653573e+00  1.0486427206458535e+00  5.8744709930105492e-02  5.9162919837639008e-02  9.9328592927396886e-01  4.3631638068808716e-02  6.3478160591710645e-02  1.4179807679227352e-01  1.4127201235871356e-01  7.0514482851249963e-02  6.2102816397936460e-02  6.3395907942122284e-02  7.4373397989634854e-02  7.5002926601130518e-02  1.4250839070505134e-01  5.1225949992938495e-02  1.1220097016817572e+00  6.4514889923907012e-02  6.1213956303787093e-02  6.1582260572043683e-02  7.2813942765092662e-02  5.9299570577207798e-02  6.9129302593871844e-02  1.0658469069690588e+00  5.9886941138329090e-02  1.5278598804575771e-01  6.5655139300315399e-02  1.0699644940049080e+00  5.0743274122757927e-02  4.3620097015123697e-02  1.5097138286643061e-01  4.9553521656925073e-02  1.5632240812800829e-01  7.4053937718100801e-02  7.1080416465962096e-02  5.9044748076043048e-02  5.3494619247491243e-02  6.2330653225605603e-02  1.7262041013144952e-01  1.1069481004356079e+00  1.5026170912354075e-01  7.6432887451189396e-02  4.9334146958446144e-02  5.4353984170333443e-02  5.3134660406281335e-02  9.4119922725958294e-01  2.1878876146460204e-02  1.5233679399514319e-01  6.2281362304655037e-02  9.1723308547310667e-01  1.0907208915304478e+00  7.4518606451617384e-02  6.1169743026739103e-02  1.6275035581030117e-01  7.1866967915036439e-02  9.4330201243601530e-01  5.7096719924706787e-02  5.8569147498149399e-02  1.4826091162298186e-01  6.3302494410744647e-02  4.8043287644301526e-02  5.5228053164408417e-02  1.2256844678238409e-02  5.8685273467647660e-02  1.6831020238128311e-01  4.1600183138054268e-02  1.1098786607355509e+00  1.0897956331722374e+00  5.4668126053085374e-02  1.6464981380644547e-01  6.7352852215065720e-02  7.6514063325657605e-02  4.6754732824136135e-02  1.5291189196970495e-01  2.3846841649677424e-02  7.2253075537178718e-02  9.0740828570141208e-01  1.5711584476077647e-01  6.6518069439817126e-02  9.9841867604071244e-01  1.1270612581690262e+00  6.3693915749344923e-02  5.6982675407925752e-02  1.5110216126549011e-01  5.9707263910358598e-02  1.0769491511045282e+00  1.0879138454326782e+00  1.1017622559043156e+00  1.5883369400136110e-01  1.5170218483765974e-01  1.5612881513974267e-01  8.8260029098294313e-01  6.5185676857160785e-02  1.6671199373662104e-01  8.7676921969415000e-01  3.3569277633520057e-02  1.0447452742459722e+00  6.0040411467510865e-02  1.6993028086415007e-01  7.4894029346125504e-02  3.1238598584712011e-02  6.4803704256532854e-02  3.6477395799563592e-02  5.1526871288656621e-02  1.6761793480022841e-01  6.2817525914945799e-02  7.5871262794627997e-02  4.9975174895920356e-02  7.0178346465092634e-02  5.4299188309643240e-02  6.4152503986679793e-02  4.5446370123290898e-02  4.2999531818264047e-02  7.2962597772648269e-02  5.1550852844810327e-02  6.2922435190471832e-02  6.4961000784296952e-02  6.5534951806481917e-02  1.4852577754877813e-01  1.1146218753175263e+00  4.5610451228177210e-02  7.5601612754591013e-02  1.5923988143330722e-01  9.7324090872200908e-01  9.6332508066964617e-01  9.0659172743522287e-01  9.2608928403767210e-01  5.6222609611239260e-02  5.6551523450108179e-02  1.7346404816355090e-01  6.7142504390792224e-02  1.1071875312608916e+00  7.1597038665150478e-02  1.0643381410763080e+00  3.9403927748678576e-02  1.0582731328381001e+00  8.7910309968640621e-01  2.6336162939259802e-02  6.7155101335974909e-02  6.0881310276872977e-02  1.0899402845084847e+00  1.1127780446891642e+00  1.7070703082581529e-01  2.5748258249676002e-02  1.0871331913910300e+00  5.1571946439912260e-02  5.7996117381327449e-02  1.1529221283073747e+00  5.8662765118086199e-02  5.9226238131287905e-02  5.5813656950215056e-02  6.4383191725975106e-02  5.4440027592712673e-02  6.6703697798087075e-02  1.0763815936438570e+00  1.0863885024304414e+00  8.0103727423286541e-01  5.9045541670822245e-02  5.7875489252371029e-02  1.0826815102458289e+00  1.1238054625412623e+00  5.6309016390736689e-02  5.0371207224269361e-02  5.0995040652714575e-02  5.7385800879692854e-02  7.1281069336598085e-02  5.4459452455435702e-02  6.7138209081114258e-02  1.1333535934540415e+00  1.1341415619661059e+00  1.0625449403566265e+00  1.0542766631441705e+00  1.0625900992318038e+00  5.8311449478243967e-02  6.8152812763214901e-02  4.9054553896048597e-02  5.5531650021505660e-02  5.9822894594782856e-02  6.2332642666982720e-02  5.3908645136451792e-02  6.8008524983258364e-02  1.1153450368060132e+00  1.0146048536707208e+00  7.5128937541857843e-02  1.0526296835205007e+00  7.2582294864605337e-02  4.5557047726478977e-02  1.0181957677629010e+00  7.4267928543033712e-02  1.4972380812238648e-01  1.7289082625209934e-01  1.7442097776635809e-01  1.1146451301048808e+00  1.1306927789711574e+00  9.3317402164430352e-01  4.4598374276817669e-02  8.3854971054130756e-01  1.6763160761723292e-01  1.1296463300685005e+00  1.0594988748214524e+00  7.6649416499555686e-02  1.1253644760170187e+00  1.2868826295726871e-01  5.1349211563265849e-02  1.0344313908809954e+00  1.6675616240341598e-01  6.0185351432534728e-02  5.6339388787883964e-02  7.1441401307861085e-02  7.2008291050287485e-02  5.9734757323949964e-02  7.2651902446849409e-02  8.1506208465265706e-01  1.1477590890763754e+00  7.5201799150837231e-02  6.3202290193065030e-02  1.1432969871247509e+00  6.0126942769750238e-02  7.4965295615428126e-02  3.5048379126684411e-02  5.5811854148273443e-02  6.3291570102565198e-02  8.6904579050385034e-01  5.4957142447288505e-02  6.4777514298011207e-02  6.3299828922730839e-02  7.2981730974450668e-02  7.2789416001560567e-02  7.8802116337863590e-02  1.0650484934084936e+00  1.0841900627856440e+00  6.7730496797835230e-02  8.6432169466098141e-01  1.7970742866432984e-01  6.2071077960200852e-02  5.1332135442148430e-02  1.0256167434838860e-01  6.5848832821210707e-02  8.1932843013827461e-01  6.6918101687878914e-02  7.0607860705470912e-02  6.4040562789561120e-02  5.2159070005840663e-02  4.8333485046183365e-02  4.9955626029422689e-02  6.3889873988926843e-02  1.9616573673185719e-01  1.2888082882760374e-01  5.1913741729751682e-02  5.2623198171398371e-02  7.1252324367112582e-02  6.2769285135503922e-02  6.1854593504983478e-02  8.4160919619126306e-01  7.3857093720104322e-02  7.3853075059488280e-02  7.6243215467675748e-02  1.8267956323290863e-01  6.1591620997187360e-02  5.2280149236219590e-02  1.1236158410526822e+00  3.8969744606204906e-02  4.7364382971007320e-02  4.2379933549192360e-02  5.6273269899213989e-02  6.7930800737378852e-02  5.3580220059479530e-02  1.0982149581513023e+00  2.1883176283790148e-01  9.3438376961965136e-02  6.0946588766070349e-02  5.9414766647107743e-02  3.8272341018296178e-02  9.5602498769273048e-01  2.6574381712030085e-02  1.0970292663552770e+00  6.4108138570034584e-02  9.0539630257947912e-01  7.5965592008348415e-01  7.6705033414482593e-02  1.9988011837214581e-01  8.6274889510879429e-02  6.5547261588522365e-02  1.0454307899077868e+00  5.3837312983102750e-02  6.1691388224744084e-02  7.5264959179948090e-02  7.6130036484119382e-02  7.3111844555043479e-02  1.0111778917006395e+00  8.5206855340152765e-01  6.1770464992014398e-02  1.1391584409097117e+00  1.1228493829194852e+00  6.5729183361761576e-02  6.2190854344593698e-02  5.2291499795653916e-02  5.8819934728247203e-02  5.5427876425328017e-02  4.7447726562556740e-02  5.1248500636580097e-02  3.8067684684456850e-02  7.1180873864901587e-02  5.7776044526069097e-02  2.1713239151778868e-01  5.4674353199537111e-02  1.0314781240700404e+00  4.9248841177122742e-02  1.9601776129028667e-01  6.9325749572146295e-02  7.4284986378834308e-02  8.8379670948145875e-02  5.2760218154152369e-02  1.3453946951798582e-01  5.6064721392844442e-02  8.9578281790475278e-01  8.8052740347845138e-01  5.0869046491880329e-02  2.2103368505730605e-02  6.7811451170970746e-02  6.9805196509380774e-02  6.0851482058677908e-02  2.1884326297936127e-01  5.1749673335158911e-02  5.8958417223146931e-02  3.9326449136958173e-02  3.2617309839334162e-02  6.2306870209313345e-02  6.1247441490534064e-02  7.9492365059655068e-02  7.9752232451253435e-01  1.1455453985583175e+00  4.0920938348546800e-02  4.8647789523484329e-02  3.8331719094468732e-02  7.6323846341563739e-01  6.4703492618219491e-02  1.1258972656450710e+00  </DataArray> 
</PointData> 
</Piece>
</UnstructuredGrid>
</VTKFile>