<?xml version="1.0"?>
<VTKFile type="UnstructuredGrid"  version="0.1"  >
<UnstructuredGrid>
<Piece  NumberOfPoints="788" NumberOfCells="1491">
<Points>
<DataArray  type="Float64"  NumberOfComponents="3"  format="ascii">-0.9637694963166639 -0.071614491258696 0  -0.9515353887844978 -0.1789866830351311 0  -0.92670757521011 -0.2835642732099161 0  -0.8898971109882825 -0.3846064321962527 0  -0.8418563946602885 -0.4802617379050342 0  -0.78446803801181 -0.5677933679849291 0  -0.7208875937113214 -0.6450539904027024 0  -0.6518472012772962 -0.7129129584028642 0  -0.5783520804088872 -0.7719730879974523 0  -0.5000463636371851 -0.8231101371016387 0  -0.4167298092007842 -0.8667635649199156 0  -0.3297449106167955 -0.9020751228784496 0  -0.2409125987979409 -0.9289776466354731 0  -0.1491436014469597 -0.9474285750989343 0  -0.05554724042179739 -0.9571632194742199 0  0.03759757493255986 -0.9580066274087309 0  0.1304855164416551 -0.9501141819540794 0  0.2219457581409665 -0.9337274342226509 0  0.3122381880947527 -0.9084469179043746 0  0.3992226839359199 -0.8748730633526378 0  0.4825525330309918 -0.8333108270648559 0  0.5622235861020382 -0.7835261886416064 0  0.6373376526421036 -0.7256732442943209 0  0.7076019310024559 -0.6594243015972396 0  0.772147341905814 -0.584360638435956 0  0.8317749115758952 -0.4977816478054049 0  0.8814898286801502 -0.4041055617490638 0  0.9203465985964415 -0.3047158088312681 0  0.9477202301158753 -0.1998538149913084 0  0.9624413481903519 -0.09334508979215105 0  0.9646254065665331 0.014165090921172 0  0.954231275319871 0.1207851755666928 0  0.9313701976000174 0.2266260042343224 0  0.8965957116591958 0.3277564375988237 0  0.8508344665147631 0.424091569973405 0  0.7937580424178174 0.5154515640098707 0  0.726667948735061 0.5996150681336422 0  0.6508135335898031 0.6755543490285358 0  0.5663232967548533 0.7430680309445761 0  0.4754977353857277 0.8003694691190989 0  0.3788001263770047 0.8473930260478834 0  0.2775413336232747 0.8835702432146215 0  0.1723022780864907 0.9083256706375583 0  0.06536858148050637 0.9213808526203786 0  -0.04224205105194524 0.9225873375038792 0  -0.1499693596374146 0.9119033041781338 0  -0.2558267483674139 0.8894765261342418 0  -0.3578671352521932 0.8557436748546857 0  -0.456139983852156 0.8108038257931366 0  -0.5480810631777002 0.755688629641708 0  -0.6340834888331509 0.6902133048143082 0  -0.7120826478282539 0.6156693177555169 0  -0.7808110809734311 0.5333483312551726 0  -0.8396556420610458 0.4439818836370298 0  -0.8882919890557756 0.3480215335470386 0  -0.9251312731523038 0.2477291837931489 0  -0.9504312740181995 0.1433606919546275 0  -0.9634205161107497 0.03640602301686655 0  2.000392917607132 2.315093500773249e-06 0  1.990129246480283 0.2023731977711217 0  1.959447167476031 0.4026733095378192 0  1.908656415177132 0.598839167124065 0  1.83826391394494 0.7888965563235205 0  1.749174062013048 0.9705319703491047 0  1.641809293183176 1.142731858006455 0  1.517619570181444 1.303214693476606 0  1.378208490406629 1.449869779466362 0  1.22467406935535 1.58168098113608 0  1.057836694249284 1.697796414201769 0  0.8812679865029638 1.795800011411339 0  0.6944223481229643 1.875982253426419 0  0.5017356761992708 1.936438221137768 0  0.3026331070366673 1.977364640655137 0  0.1013189772099165 1.997829150605087 0  -0.1010317788066815 1.997834317966947 0  -0.3032016584311349 1.977275844393929 0  -0.5014046577105135 1.936537403816504 0  -0.694473438965022 1.875967677349335 0  -0.8812255359614192 1.795823569363473 0  -1.058104487005535 1.69764859379423 0  -1.22449017444127 1.581838692669107 0  -1.377984549469532 1.450066680003806 0  -1.518033056917423 1.302726825657709 0  -1.6416400359945 1.143038593358498 0  -1.749006239095491 0.9707721030229551 0  -1.83838391718939 0.7885938301294209 0  -1.9086518081957 0.5988391469471058 0  -1.95937416102402 0.4029556190414408 0  -1.990145352058119 0.2020833313541334 0  -2.000388646035482 -7.515434858426344e-07 0  -1.990143142764119 -0.2020928893160047 0  -1.959369621330634 -0.4029638168703131 0  -1.908660134103618 -0.598809148280129 0  -1.838273823308929 -0.7888709684544292 0  -1.749036682614233 -0.9707931924177489 0  -1.641848901625481 -1.142761770284636 0  -1.517816288230641 -1.3030015004789 0  -1.37820883268108 -1.449870464805666 0  -1.2244229097602 -1.581885518964437 0  -1.058384667882842 -1.697454720248705 0  -0.8809397284363317 -1.795918978073231 0  -0.6944630935384597 -1.875967617554021 0  -0.5014402846677398 -1.936529007351513 0  -0.3029153915617142 -1.977331416148941 0  -0.1012820860025826 -1.997829681500971 0  0.1010218688486727 -1.997832750295894 0  0.3029071071809154 -1.977281377945026 0  0.5017377573967188 -1.936435594500997 0  0.6944199823165883 -1.875980449243655 0  0.8812200591258214 -1.795823905003861 0  1.058107077189027 -1.697642772732302 0  1.224455198249636 -1.581865481019268 0  1.378230881442732 -1.449845042149462 0  1.517612090743187 -1.303216414418135 0  1.641806330351697 -1.142728732811749 0  1.749190935457134 -0.9704795100924264 0  1.838121380146761 -0.7891802435477532 0  1.90861366087493 -0.5988364384070457 0  1.9594899866558 -0.4023848065632633 0  1.990121896844209 -0.202414822332832 0  0.001456716604726512 0.01881405512781657 0  -0.1498925038737173 1.45401589808644 0  0.5038544716896532 1.369907925914956 0  -0.7213358215502074 1.277219684136153 0  1.054680347482251 1.020882464575919 0  -1.177052146002555 0.8873845587740231 0  1.400220556429373 0.4689930215999394 0  -1.439046531178693 0.3463142390025675 0  1.483136046191926 -0.09815249821310078 0  -1.466355357842576 -0.2464976888968714 0  0.5832201316233394 -1.375983370005384 0  1.330363509208213 -0.6705323716586067 0  -0.1697931353082902 -1.482191421307669 0  -1.286383163557632 -0.7419580660733553 0  -0.7193213167927424 -1.312256496895619 0  1.004517720211675 -1.104562623034382 0  -0.4852039592656188 -0.08464902966365211 0  0.4922757303335871 -0.04880206680138267 0  -0.3049067728973927 0.3688779077295632 0  0.2850406291952937 0.3835817722776885 0  0.1947066880567197 -0.4127054641753924 0  -0.969364583789381 -1.000402107262134 0  -0.2322614789441013 -0.4325634717160292 0  0.2276728519078561 -1.57187283919284 0  1.398810644065716 0.8535478007820558 0  1.101063009556285 0.6668220955412933 0  0.2018804506441631 1.612333833805037 0  0.1607314120937633 1.25725716816293 0  -0.4989360447107791 1.573783952816181 0  -1.082815749380898 1.247043641705168 0  -1.490104229520111 0.713825835245641 0  -1.653070706071148 0.06844204553703725 0  1.598756655246556 -0.427125246621981 0  0.9605776315847525 1.363879073253705 0  1.643898703841529 0.2246593047652625 0  -0.4976361311848774 -1.593897169837498 0  0.008977095070333485 0.5974507215018967 0  0.7013586325418554 1.066524399354699 0  -1.04872807987528 -1.312594987630069 0  1.331474894527116 -1.035856468419821 0  -0.6094879471228986 0.203346325167128 0  0.5116174906462492 -0.3785903491845107 0  -1.57315941758776 -0.5547287685572367 0  -1.301759612560382 -1.060915676634787 0  0.2870082778320932 -1.25872291063881 0  0.5933121773943238 0.245782584402934 0  -0.4063174993423702 1.175580784300939 0  -1.165063494865402 0.538897273435471 0  1.253375965560505 -0.3580391707871259 0  0.9756134025279579 -1.405847125218866 0  -1.322000502290341 0.03324403359796835 0  -0.8436543070818743 0.9518004525879846 0  -0.5397887362864154 -0.3877840895519381 0  -0.3989536907923227 -1.233162562190906 0  1.262402964909492 0.1140637154972763 0  -0.0112397432785778 -0.6314778595187146 0  1.017827910769604 -0.7948603662703011 0  0.7322198686726169 1.55000625545277 0  -0.008236320143039754 0.319787299797848 0  0.5045327967170236 -1.651716178561772 0  -1.204463268286563 -0.4481463904989519 0  0.6846849793266997 -1.09305842002135 0  1.311162716086667 1.122338343878141 0  -0.1268919890105681 1.180166853168592 0  -0.1773192448578086 1.732263930199251 0  0.415164415768059 1.111558865055766 0  -0.9157778801540197 1.468389031091356 0  0.01359242072405257 -1.259471047669726 0  0.000149003173592101 -1.736869467024076 0  0.8698949536407141 0.8226461914665661 0  1.595696463465746 0.6695986334738595 0  -1.428760569141952 0.9813725947859833 0  0.4760121535679793 1.662536988013722 0  -1.658701330512832 0.5110654335464934 0  1.152132184681421 0.3668234738259655 0  -1.183393498841406 0.264294159447991 0  1.727676297586191 -0.1957666100208063 0  -0.9742815925681902 0.7191957582723643 0  -0.6915241949499162 -1.04299535422819 0  -1.711957966154636 -0.3360520374105697 0  -0.2634557159647299 0.6211602422172139 0  -0.02614491250193679 -0.2491421357011639 0  1.601406570453969 -0.6817754561314382 0  0.7706768186089589 -1.563705724564168 0  -0.8530634974516484 -1.540008892338524 0  -0.2758594203718299 -1.722833965597212 0  -1.50127963173367 -0.8959042465566841 0  -0.9968180334991636 -0.7414312072728692 0  1.21366423383466 -1.258709609878575 0  1.087659573489889 -0.5603838595336657 0  -0.7223413323794711 -0.03387564335913961 0  0.3230128472970933 0.6167673436360421 0  0.7311304628410855 -0.02274094576862713 0  -0.2298133935110686 -0.1003291164539143 0  -0.2184944192770892 0.1441440062938243 0  -1.209827496960987 -0.2021782893477414 0  -0.5418692054330345 0.446346018190971 0  0.3750510345035073 -0.585880598155573 0  0.3264192258807512 -0.2126071587082037 0  0.2611725144908947 0.1205076483764347 0  -0.6215554934271988 1.055705261106949 0  1.236076606758406 -0.1260344354702614 0  0.8386741855287141 -0.9359168617739748 0  0.733182257264267 1.312786539024187 0  -0.4119385889164721 -0.5834794555995662 0  0.5008468384286644 0.4604487536724494 0  -1.307412750937093 1.231460467652407 0  1.524818854761032 -0.9006591856001284 0  -0.7124398188249468 1.649610977413933 0  1.74014407179052 0.4393237031601989 0  0.4536875217501153 -1.113059395881405 0  -1.794599610763076 -0.1005019860344854 0  -1.779878589874305 0.26207120125988 0  -0.2202238888881006 -0.6793792111106844 0  0.6454352508306413 -0.2182664237634895 0  1.188129377774255 1.323875333380312 0  1.680930795821085 0.01240686387663778 0  -0.193365740707292 -1.26156406371
[...]
<PointData  Scalars="f_1233-1"> 
<DataArray  type="Float64"  Name="f_1233-1"  format="ascii">3.7840124153773658e-01  3.7947790384274921e-01  3.6325640205838333e-01  3.8584961788724031e-01  3.9146228174116909e-01  4.1694739749621551e-01  4.6477886314135497e-01  4.6526467325022980e-01  4.9700246440829332e-01  4.9618968012360393e-01  4.7636007711946837e-01  4.9498906102449952e-01  4.9966377168580867e-01  5.0384800067972380e-01  5.0619458953355334e-01  4.8282257063870804e-01  4.8600070459869721e-01  5.0018766772907786e-01  4.9247303409769655e-01  4.8794595385273642e-01  4.9300840635218585e-01  5.0391589282385485e-01  4.7806757207081096e-01  4.6962767483895490e-01  4.1556958846986386e-01  3.8553600524259918e-01  3.7930480628976093e-01  3.7144721309676382e-01  3.8018296104680993e-01  3.8629292330089787e-01  3.7275874607547654e-01  3.7007895298533039e-01  4.0426171952250961e-01  3.9020144603282358e-01  4.0855247310918530e-01  4.0061265338492380e-01  4.1673025941959463e-01  4.1847290097763956e-01  4.0862349849649660e-01  4.2221169759680904e-01  4.1066384239152698e-01  4.3445869255186015e-01  4.0612369432911510e-01  4.2565129930492435e-01  4.1593134203452869e-01  4.2774971512868154e-01  4.2095514897246650e-01  4.1860888925044848e-01  4.1473003562208582e-01  4.0958693049264899e-01  4.2428246191407470e-01  4.0775492638449418e-01  4.0870289561503581e-01  3.9139072101247335e-01  4.0078407062549248e-01  3.9064604039568857e-01  3.9015141315322638e-01  3.9085718049448576e-01  -1.2625977772299870e-02  -8.6025954376522870e-03  -1.1897681992310656e-03  -2.5357837551728104e-03  8.2938622331425477e-03  1.9627616180527645e-02  -7.2572739648743140e-02  1.9263169070831032e-02  3.2410129942637242e-02  2.3588830745969087e-02  3.0826473241425512e-02  3.4944368310562510e-02  3.6041352614133770e-02  3.2341595567694455e-02  4.9724921145700228e-02  4.6551101947219696e-02  3.8943207151158878e-02  4.1970936797242488e-02  4.5562078502307354e-02  3.5373110998063083e-02  3.1904793413789607e-02  4.1240038959541911e-02  3.4002803730329843e-02  2.0529091850150102e-02  1.6359541409069110e-02  1.0711166869263006e-02  -6.0609781813503617e-03  1.0301134161310975e-02  1.0527295389794790e-03  -1.3037706941693383e-02  -1.8650424621825114e-02  -1.4076620767929256e-02  -2.9895230995359123e-02  -2.5523955727883359e-02  -1.9107349277674698e-02  -1.6863607388512118e-02  -1.2417476808952889e-02  -6.7959344837281955e-03  3.4267133020855472e-03  6.4480980250597444e-03  1.3229100897323424e-02  1.3440894572874163e-02  -5.4039452015715424e-02  1.8617866010442425e-02  3.6081121168337692e-02  2.9250117243040521e-02  2.8680453271296449e-02  3.1292349262332694e-02  -3.4947700065542167e-02  1.9887359645805118e-02  1.9387938067296179e-02  1.7146138961188957e-02  2.6592100089926018e-02  1.4325162454579670e-02  7.4372583134502618e-03  -4.9669425725322944e-03  -8.9416680096657306e-02  -2.1695222126931670e-02  -2.9127699009437184e-02  -2.5086513975324916e-02  -1.7981651972504363e-02  -1.8040172798425905e-02  9.0196633134880089e-01  9.3691886592937451e-02  8.9347544174653265e-02  8.6180227957321720e-02  7.5119149394836396e-02  6.8965465241547480e-02  5.1618170995586472e-02  4.6932509367779644e-02  3.3425441072612340e-02  3.0941054286248288e-02  7.4974698487931563e-02  3.4291159377532986e-02  8.0685835627893152e-02  3.7789111643940158e-02  7.2832812436206318e-02  6.1303140542995065e-02  8.9245029964035594e-01  8.8904756392560480e-01  8.6848218229388052e-01  8.6891709221759894e-01  9.5812298291178666e-01  5.8833528497999596e-02  9.6023387245054370e-01  7.7691946519778940e-02  6.2886021578211548e-02  6.1156446633280695e-02  9.1393609239025078e-02  8.8634638282865594e-02  8.9346966338969436e-02  7.7179408072891573e-02  5.6091781312387907e-02  3.6500217137100298e-02  2.9109274414608550e-02  8.0070171916120175e-02  4.0360298023904576e-02  7.4560079488581468e-02  8.5823244454966940e-01  8.4337853545150471e-02  5.9667923511315370e-02  4.4669964244707865e-02  8.6049136119465508e-01  9.2123910682013854e-01  2.9800692004886532e-02  4.6128016281243606e-02  8.0515224834973323e-02  8.5918648757143079e-01  8.7099890115876002e-02  5.5836069729013345e-02  2.4048851364553248e-02  6.2629812960698028e-02  3.8769847408289704e-02  8.2764346464750060e-02  9.1465837571802089e-01  7.8063597653474398e-02  4.1120998807142220e-02  9.9005423695908057e-01  5.0572701560277995e-02  8.4122288377260948e-02  8.7670726462770987e-01  7.1571831899722951e-02  3.0372822778681030e-02  7.3592414396388237e-02  6.8568284028487789e-02  1.0506937078687686e-01  8.9617148748172434e-02  9.8174037802725350e-02  8.0722270779778740e-02  8.8546411903190195e-02  7.4487281968604421e-02  7.6239798058648431e-02  5.1853104717282078e-02  6.2359494375817712e-02  8.6584267550003535e-02  4.5584399010049605e-02  5.1390260472585651e-02  4.5453035607218230e-02  2.8070652040893901e-02  7.2615001968743154e-02  8.0819654449040670e-02  2.7087387888156039e-02  8.3542196843189631e-01  9.3464289731434336e-01  2.8213704715260295e-02  6.7114299622028681e-02  6.5461451833505116e-02  7.3726848181050006e-02  3.4476703879783230e-02  5.8437993112314950e-02  5.2087554674723001e-02  2.6077059933734291e-02  8.4627505172190720e-01  8.2852376153721896e-01  8.4194569161480415e-01  9.1100723753375756e-01  8.8731762889935828e-01  4.0935748325240905e-02  8.3462730808860452e-01  9.7365319531722083e-01  9.2084420113690080e-01  8.8778832618537029e-01  9.1463279822797880e-02  3.7852684669609588e-02  7.6803291908057222e-02  8.5549651020946207e-02  9.6747295224465324e-01  8.4322826372079862e-01  6.8507347239190566e-02  3.3587603433160487e-02  8.3274702384229182e-02  4.1470672788089226e-02  9.6050350398095341e-02  2.7502337857825725e-02  3.6188624496304916e-02  9.8052104844991106e-01  8.7557318254325522e-01  7.2408417612013581e-02  3.4239388198109559e-02  8.7872552753893343e-02  9.9052216150213568e-01  9.2259764195621030e-01  7.0624871855604274e-02  8.4233223754852460e-01  7.1106247513038831e-02  7.7231854260077101e-02  8.0641242354006659e-02  8.0459439566201066e-02  6.6152259081637382e-02  4.7292099709163649e-02  8.9735996214447084e-02  8.8099125556686170e-02  4.8188578503802863e-02  8.8116964425343680e-01  9.1754997434428709e-01  8.0314231010827963e-02  5.6865472274568125e-02  4.3731981347248781e-02  8.5241284624216374e-02  6.9507620101015147e-02  5.0808344398522720e-02  8.6600316139200795e-01  9.3176704317164447e-02  8.4576201882443053e-02  9.0842197153511495e-02  7.6445572306586565e-02  8.1821326174594269e-02  9.1556878563738661e-02  5.7936368903555552e-02  6.0933115022294766e-02  5.3800888591447542e-02  9.6201837725106776e-01  6.7557930330585575e-02  4.0253137832624013e-02  9.2519655040404519e-02  3.0733564364729016e-02  8.1632162385988444e-02  8.3227531260564522e-02  8.5943443992892152e-02  7.9948753352944579e-01  9.1754854113369796e-02  8.1116931870080400e-01  1.5121760377174701e-01  5.3457212694529528e-02  6.0311926906720062e-02  7.1605368365490418e-02  7.8083463645485185e-02  8.7707216123428511e-01  7.8536289941962906e-02  7.6596337814882079e-02  1.2075258060861681e-01  5.5312254414094868e-02  4.7064893116298162e-02  3.4623012315454879e-02  5.4096653275037966e-02  3.6530438667240810e-02  6.9657116285316109e-02  3.0950213631425715e-02  3.0646578278420732e-02  5.5142503763743980e-02  3.3409577752625187e-02  4.1171319515214189e-02  9.0610672968338093e-02  3.4973317896267654e-02  2.2948660426028621e-02  2.1728065003572872e-02  2.1627499026726112e-02  3.0712919618880733e-02  2.9144994814647614e-02  1.4093004481136789e-01  1.3436121846400625e-01  1.1841514396284286e-01  8.6822393967863259e-02  3.3667730440757875e-02  4.3068482229442206e-02  7.9018839928296059e-01  1.1295808751029610e-01  8.2524380038931047e-02  7.8897398327211987e-01  2.6174630632380864e-02  1.2150134123085607e-01  7.8808211481230017e-01  8.3577942271963879e-01  9.4071732828069721e-01  3.8588591201114776e-02  6.3818476228555424e-02  7.1354090790252775e-02  4.6401619436063704e-02  6.0392741660449868e-02  7.4192793786721598e-02  9.0261158411549658e-01  7.2297347658454303e-02  8.6757369698210807e-01  8.1012618746368015e-01  1.0642360260480893e-01  6.7895317969924138e-02  7.7269109658776383e-02  2.8619341962223922e-02  2.9875463233005658e-02  7.9393980778484322e-02  8.6553720300828740e-01  2.1221325546716765e-02  7.5354486169343524e-02  1.4673278396243453e-01  9.3334165284255732e-01  2.4538122664444603e-02  2.8772558305428391e-02  7.9140374578791209e-02  9.4675204648259181e-01  4.1821065071465408e-02  7.6539448744350341e-02  8.7908547110869928e-01  9.6955965313925008e-01  4.4104719311297017e-02  8.4325407023678745e-02  6.7065989068574194e-02  1.4792057241231607e-01  3.8243549434528575e-02  2.5159940196742919e-02  2.4473454161697841e-02  6.1872475304078099e-02  9.4843696505749045e-02  1.3590203674227327e-01  6.9236956028469146e-02  8.1655477725257664e-02  8.0215158947109413e-02  3.5170266062615446e-02  4.0884856620907919e-02  8.6915554466725242e-01  9.0932858913813697e-01  9.7132375006127447e-01  1.1689541652874474e-01  7.0073452854730170e-02  9.0574516056803833e-01  5.0498330370573316e-02  9.4758928043472723e-01  1.3377928383184592e-01  3.1767457676924446e-02  1.4478965746345862e-01  3.9341926522875194e-02  6.5203198022454334e-02  6.6589856396731761e-02  3.0377635393586802e-02  4.3053422006821322e-02  4.5391857908938328e-02  8.7407807908493118e-01  8.1625580506750409e-02  1.3028433633885897e-01  9.0208718594692150e-02  7.7370624192749604e-01  7.4507642058145040e-01  8.5689670915897687e-01  7.3286656702342134e-02  5.1347246122031960e-02  7.8745161922380708e-02  6.1403703135937911e-02  8.8798098577063223e-01  9.3754085193953979e-02  1.0335558237085313e-01  8.7439667371517357e-02  7.8490555584129623e-02  1.6440473171606337e-01  8.7047026987589016e-01  9.3645209084478120e-01  7.5572420540794036e-02  5.2536123063897912e-02  3.4443153371657251e-02  8.9555947777214073e-01  6.8858957604757534e-02  8.9066450595668911e-01  6.5351731879887007e-02  5.6477661569161348e-02  4.1636648085864196e-02  1.4369731716878323e-01  9.8147980120962952e-01  8.0742828129998712e-01  6.1842197413143965e-02  7.7579148651472682e-02  3.6533415719325356e-02  7.4721839905030263e-01  2.2825995816318029e-02  8.5966071845340525e-02  8.9823394627349462e-01  9.2206932308313921e-02  6.4564086733843992e-02  7.8034454442802673e-02  1.4172519962292318e-01  8.7485051522980817e-01  4.9995792723286143e-02  3.1603879489720849e-02  8.5475912261627029e-01  8.7385281810774845e-02  8.3547878020572522e-02  8.8947157951352163e-02  9.3442763396938211e-01  6.5456653869691253e-02  7.4376167392634904e-02  7.5426126609018221e-02  3.0119289868942672e-02  5.8968703100074675e-02  1.6039864368273379e-01  8.2856014546479825e-02  8.7639879395534803e-01  7.3087028989569702e-01  6.9250437054426905e-02  7.7829061323093932e-02  7.2168234579982571e-01  9.1366060953248993e-02  4.8247662003886936e-02  8.8974691900138472e-02  5.9222738051885250e-02  8.3674761146254426e-02  8.5505459743181064e-02  9.1700970562626993e-01  9.5030665278071436e-01  7.6659524978704208e-02  7.2764377864319343e-02  7.3581359008068115e-02  8.1352596874806907e-02  8.9722875094570914e-02  1.3605987530884073e-01  9.0628392145739187e-02  1.7058955072966162e-01  6.6641958559502307e-02  1.1588468093488562e-01  -1.4667731441430184e-02  1.3787162320175034e-01  6.1976664138332790e-02  9.2344258115072075e-02  1.4247018722700963e-01  9.0220004662333286e-01  9.4677378972380516e-02  7.1124637605720187e-01  7.3804104861500985e-01  1.4721341214352410e-01  1.4483653787591273e-02  3.8517943910771686e-02  5.3260724941677114e-02  3.3133803797008157e-02  8.9048422348297018e-02  1.7032518142118411e-01  5.4515969008489817e-02  4.8573392802115971e-02  8.7170522640333048e-01  6.8083375454015368e-02  6.6029092597109651e-02  1.0014196759528789e-01  7.8185065622929262e-02  5.6303249375276899e-02  6.7400118770934533e-02  9.1778283597455768e-02  1.9806331626720436e-02  -1.2976084039409646e-02  1.5373435025438821e-02  1.4820164548233380e-01  4.2018191813231562e-02  5.1252919653070488e-02  9.2444674230899498e-02  5.7552845919203774e-02  9.3512416229381368e-01  8.5296836745408022e-01  9.5260852513117791e-02  8.7638267279160420e-01  -1.3518057559757220e-02  2.2015120453524595e-02  7.0822111952554045e-01  4.9096235292357938e-02  7.4614085713900366e-02  2.2338202671988366e-02  7.4358718364094675e-02  9.7709308144072027e-01  8.3830433078083272e-02  3.2276711053531679e-02  9.2874754495007039e-02  8.6632866944041576e-01  6.2442308872456165e-02  5.6484399505877601e-02  5.3097482212701802e-02  7.2061639302551189e-02  8.8989081765861056e-01  6.8987379293509621e-02  3.9011874946189282e-02  7.1286844732093124e-02  3.8594044428671433e-02  6.9657352956019636e-01  2.7813474957058288e-02  3.0996574792177614e-02  9.2264176838676026e-01  9.0010976691678757e-01  3.8200271967603804e-02  2.8610124072255948e-02  8.7140086305107167e-02  4.3343621090838023e-02  3.9078411782068959e-02  3.4968615193691009e-02  7.8366301698493526e-02  4.4736025576642614e-02  1.1688494609516827e-01  9.0679229885646251e-01  7.3494217242757998e-01  8.8677664174827101e-02  2.8371863629104165e-02  1.3132629837405677e-01  9.4538533264930269e-01  2.8481846408053187e-02  6.0449702513486137e-02  8.6360986913536808e-01  9.6923464083125799e-01  9.6344266900774100e-01  8.4362683030004132e-02  6.6424360174228092e-02  5.3220291963891601e-02  6.9377428857801549e-01  8.6114132012461175e-01  8.8836117858030236e-02  6.8852774067868805e-01  8.7105549794231063e-01  3.8076008058835861e-02  8.1486619034307886e-02  7.9700415752468290e-01  1.5290221201706211e-01  6.1870666638389561e-02  3.0838081023203189e-02  7.4873143680599621e-02  4.7580745912647847e-02  6.5065161014462233e-02  5.8850732791929872e-02  8.5039315916190142e-02  9.0394396318443115e-01  4.8339128421339993e-02  1.4372087519158341e-01  8.1136207729913840e-02  2.3158447654166480e-02  8.5292129131214756e-01  6.8989474957934638e-01  6.2373584697830185e-02  7.4198295084569585e-02  3.1169286101430525e-02  9.2708639808918830e-02  8.8998056296512543e-02  8.3407134068613831e-01  3.5820564088738821e-02  8.4365196160849587e-01  7.2055571670369314e-02  3.7214546556317903e-02  5.0878658342600643e-02  8.3863430900042155e-02  8.6203891497290053e-01  7.9135472218710368e-02  8.7507619601164974e-02  9.6257873172740382e-01  9.1588847412099869e-02  7.9852072434944590e-02  8.0755009625442617e-02  3.8607224833059846e-02  2.3682526428883400e-02  1.3987037910618438e-01  8.2910383964601736e-02  8.7573648208116431e-02  1.7800662243621831e-01  8.6932103299168484e-01  8.6115551098562046e-02  7.3554834503055569e-02  7.7205611735407090e-02  7.1716660468170573e-02  3.3474889351182195e-02  8.9397512329979015e-02  8.0539499600250841e-01  6.6073786337665608e-01  4.0149325072542957e-02  1.8912124057531492e-02  8.5708439082154841e-01  8.4783117296957977e-01  8.6319388797262042e-01  3.7011081121320240e-02  7.7771360763616820e-02  8.6561490182983120e-02  7.0251887326436252e-02  9.4055613950025485e-01  5.7898429179622457e-02  4.2820491915075962e-02  1.2051315087019245e-01  2.0186704429017963e-01  7.0750757076375320e-02  2.9974789193659958e-02  1.8893431555323403e-01  6.3491268457908881e-02  7.8192007858328291e-02  7.1856593951569861e-02  1.7975107089200529e-01  3.9109576161775711e-02  4.1821520805771194e-02  3.2465201829186323e-02  9.5702074483428501e-01  8.1266557842299425e-01  6.1703799388774447e-02  6.5824124334848785e-02  7.2922441335833477e-02  6.1816118096227592e-02  4.6709910873618213e-02  6.7627026975848303e-01  7.6625857195213989e-02  7.7783371530909529e-02  7.9320158273373312e-02  8.9649688981577436e-02  8.8334423577244670e-01  7.3326490502999303e-02  9.1707976884636985e-02  7.0617699425098057e-01  3.1944635530815821e-02  2.2858042106341271e-02  2.1689783908287547e-02  7.9312200519962156e-02  6.7573805692911382e-02  7.2519040632934947e-02  8.1948294122400578e-01  9.2625881644986030e-01  2.8923620039065151e-02  2.7812412589938395e-02  3.2000164648346423e-02  3.6645573615655631e-02  7.5165064341682020e-02  4.7600990407757587e-02  6.4443851142777064e-02  4.6266205933262770e-02  8.8379040097138517e-01  7.1791585181352313e-02  4.4675485354556711e-02  9.2506507504677885e-02  2.9549974851555517e-02  8.3013779809675073e-02  6.3561922450720942e-01  6.8161188103008918e-02  2.8470421078896808e-02  6.5911878378285749e-01  6.0189095203068567e-02  8.2179839390790529e-02  7.5046663511252176e-01  5.9047115379231740e-02  5.6284687861869374e-02  6.9071566304286167e-02  8.2686272798723356e-02  9.0453992503884095e-01  8.9115261933811515e-02  9.9241891566789264e-01  1.4505874702889729e-01  4.1568591183249355e-02  8.0359331316657595e-02  1.7161021261251733e-01  3.4173324284186755e-02  8.6290366159955423e-01  7.2528553672369322e-02  8.1137438886009616e-01  4.6398108237365225e-02  3.0584764599178367e-02  7.3292008105496576e-02  3.5392933195971574e-02  8.5357607181860376e-02  5.6910446825656061e-02  7.2015424202513736e-02  6.8883304656893657e-02  6.7085210077147212e-02  4.3630310214807975e-02  5.5075403993571678e-02  4.5804850512404363e-02  6.3868673407383392e-01  6.5219860352072320e-02  8.6321689566810092e-02  7.5376580517500125e-02  9.0613143277833499e-02  8.2369647178842445e-02  7.8989410142322095e-02  5.0299461086651058e-02  8.9285223997903895e-02  7.0661961002202622e-02  6.6104124897060260e-02  1.7589465724818978e-01  7.6437527932081284e-01  5.3533904156025020e-02  4.2009852281885390e-02  8.1196073916000855e-01  9.9089990464162836e-01  9.7914116413638697e-01  1.2894398200918147e-01  6.6870909587612021e-02  9.9467625953224031e-02  8.5495316059136528e-01  9.2823173907295400e-02  1.6708669422216940e-01  5.8070515626459263e-02  7.8300231110933788e-02  8.2682968965171910e-02  8.0574581870223677e-02  5.5879578406181157e-02  9.3866846311682253e-02  9.2630826201428457e-02  7.2729244116691005e-01  7.9215344516571987e-02  6.0582144135188871e-02  1.9720556206195528e-01  5.2774180988916432e-02  7.3857677788180948e-02  9.1456782351223204e-02  4.6648337391547383e-02  2.5983738341551987e-02  3.1702369658309353e-02  7.3980877683116952e-02  5.2740629112696627e-02  4.2246013438794180e-02  1.3344875935550626e-02  6.4597933860969528e-02  4.7358537026463365e-02  9.0718233215236355e-01  6.7171149240057057e-02  9.1951278954137217e-01  9.2846683955154619e-01  8.7360699995893276e-01  8.8751448647838438e-01  8.8433854147045998e-01  2.0000662259916091e-01  8.3525557829584235e-02  2.1908846505466387e-02  4.6130982318055042e-02  6.3029208456435643e-02  6.1566677338474138e-02  6.7300734884257710e-02  2.7607505666285188e-02  4.7532584416122348e-02  7.9778272017476592e-01  2.2836124900333926e-01  9.5124852179843025e-02  3.2980390572847046e-02  8.5679964867205827e-01  7.8147824591973794e-02  7.6210569914632320e-02  7.7499622440004107e-02  7.8736759102126283e-02  5.0181255798506769e-02  5.3354931312729871e-02  5.6240539964056070e-02  9.3051287798953730e-01  7.4465222842842321e-02  2.0000118198164660e-01  5.1731045145057428e-02  5.3363466278453765e-02  8.1554354790477360e-02  9.0855294616958682e-01  9.2025106881793595e-01  7.0592074582507339e-02  2.2732892262068680e-01  </DataArray> 
</PointData> 
</Piece>
</UnstructuredGrid>
</VTKFile>