<?xml version="1.0"?>
<VTKFile type="UnstructuredGrid"  version="0.1"  >
<UnstructuredGrid>
<Piece  NumberOfPoints="995" NumberOfCells="1854">
<Points>
<DataArray  type="Float64"  NumberOfComponents="3"  format="ascii">-0.9962236461553655 0.03929369416139582 0  -0.985866668082139 -0.0709130710977055 0  -0.9623685528892909 -0.1797732790382584 0  -0.9263483723205223 -0.2847992772419032 0  -0.8779535318531765 -0.3854116591241 0  -0.8189779686803518 -0.4784980145502508 0  -0.7507497402200202 -0.5630258924453736 0  -0.676322255258218 -0.6368026620573272 0  -0.5989853304559538 -0.6990455112476314 0  -0.518208750069306 -0.7516908194701903 0  -0.4333983241753904 -0.7961766083737718 0  -0.3454321979304013 -0.8321308345330217 0  -0.2545204146340441 -0.8598335322880218 0  -0.1617827317105794 -0.8790017729558885 0  -0.06790725689221595 -0.8894680333161962 0  0.02660375040525942 -0.8913127435980452 0  0.1207040954605957 -0.8843984404869004 0  0.2147393255875513 -0.8687737449262941 0  0.3065653492115136 -0.8446541460483308 0  0.3954804554614377 -0.8123182710597263 0  0.4820203997391658 -0.771150516341477 0  0.5640369969245085 -0.7222316396943885 0  0.6423211349386203 -0.6646006195426072 0  0.7185203290555622 -0.5957261054190452 0  0.7897718088489977 -0.5155740534748966 0  0.852985155735186 -0.4259239907192446 0  0.9060773386140951 -0.3287379844176104 0  0.9473713904629614 -0.225760524662206 0  0.9762847637996724 -0.1191987571271009 0  0.9926751049363448 -0.008956936398587346 0  0.9957203070482674 0.102040136787781 0  0.9856536966460436 0.2124543639057217 0  0.9629362533042617 0.3199621415809415 0  0.9278746926924321 0.4240135164631813 0  0.8808320518481968 0.5240110805566001 0  0.8233983071440489 0.6172986989577319 0  0.7551192470604857 0.7041769088278962 0  0.6778849416344553 0.7823205406065552 0  0.5923878909809078 0.8513311164473882 0  0.4986275267599163 0.911215374656457 0  0.3994938920781503 0.9601281972821839 0  0.296356583282486 0.9977245725496049 0  0.1895348666450174 1.023895703140193 0  0.07913339965266115 1.038516413425761 0  -0.03161582887995708 1.041078486665494 0  -0.142045072038163 1.031597406432208 0  -0.2504326943846401 1.010337276006539 0  -0.3558156459529855 0.9772590887008177 0  -0.4569808514179734 0.9332228132989512 0  -0.5519884692635362 0.8788346950284845 0  -0.6414664943139804 0.8133974875864405 0  -0.7227944698959818 0.7387363893505721 0  -0.7947102049556898 0.656150135644891 0  -0.8576065489211865 0.5649557340847368 0  -0.909421229166743 0.4677084364686173 0  -0.9498678487690708 0.3646667622454566 0  -0.9779175233621714 0.2585780688977246 0  -0.9934412822374835 0.1500321888755742 0  -2.185170243581619 0.1025358917033509 0  -2.1851723602595 -0.1025417966391604 0  -2.165965952335544 -0.3067029855323327 0  -2.127718908225504 -0.5081849847223182 0  -2.070796420499581 -0.7051913611965456 0  -1.99564524222382 -0.8960045556396962 0  -1.902976394131675 -1.078945278067118 0  -1.793594115410996 -1.252404320743668 0  -1.668433267350315 -1.414857359364026 0  -1.528617132829809 -1.564875130768595 0  -1.375354319625969 -1.701136354371732 0  -1.210022750504516 -1.822460234013673 0  -1.034040396215181 -1.927753150040524 0  -0.8489859033525412 -2.016120863745803 0  -0.6564534081853326 -2.08676349407431 0  -0.4581741561807304 -2.139066483402928 0  -0.2558450357578367 -2.172571470118587 0  -0.05128884263866983 -2.186982351037075 0  0.1537334252686855 -2.182163189606632 0  0.3574007124055316 -2.158180505221105 0  0.5579254270163178 -2.115241112659178 0  0.7535475336090008 -2.053689797364175 0  0.9425484143520863 -1.974113014451039 0  1.123262516180673 -1.877162899880914 0  1.29410896902473 -1.763731430296951 0  1.453582349700633 -1.634810309290861 0  1.600285811827388 -1.491504364968159 0  1.732908272628957 -1.335097397608469 0  1.850310144519878 -1.16695351349736 0  1.951464000496486 -0.9885704666161265 0  2.035449168223032 -0.8014787404428243 0  2.101558698506172 -0.6073557468728882 0  2.149197558906472 -0.4078946935695218 0  2.177950579193459 -0.2048485086749481 0  2.187575100972163 -6.653868192090096e-06 0  2.177952014394095 0.2048438008402683 0  2.149200270501086 0.4078911435329997 0  2.101573082696396 0.6073600768607228 0  2.035453232823178 0.8014772079363555 0  1.951469360728213 0.9885701902309663 0  1.850330023445449 1.166956396680043 0  1.732909141316913 1.335092591180529 0  1.60028839915144 1.49150690626447 0  1.453578720383117 1.634799474862499 0  1.294106781561551 1.763732696609963 0  1.123262444865165 1.877167185564539 0  0.9425507177647545 1.974114296344205 0  0.7535520358908572 2.05370079168306 0  0.5579282086522644 2.115241427558554 0  0.3574005327814385 2.158191480761576 0  0.153736931565257 2.182176853474017 0  -0.05128384144012906 2.186970441675847 0  -0.255852618617238 2.172562860863708 0  -0.4581717228302135 2.139068779202137 0  -0.6564572312895627 2.086754607696808 0  -0.8489836310067578 2.016123846514855 0  -1.034047162427527 1.92776554087099 0  -1.210019014639883 1.822463789269171 0  -1.375366540332213 1.701142009222887 0  -1.528618008499737 1.564876502981156 0  -1.668436299562672 1.414863191627182 0  -1.793597336199856 1.252404905968951 0  -1.902989018322411 1.078950346321548 0  -1.995664439329446 0.8960033849204918 0  -2.070783217107551 0.7051892321438997 0  -2.127733280860621 0.508176066500306 0  -2.165968119170226 0.3067108836864056 0  0.001030502124289334 0.1111018139933367 0  0.3020247770355799 -1.524788698598672 0  -0.3732919685812479 -1.509184344177935 0  0.9209158358092051 -1.260780655833817 0  -0.9382599577216326 -1.253349959019406 0  1.365050705234511 -0.7836339075059463 0  -1.400860196931107 -0.7209343381549251 0  1.587598095508137 -0.09451848316071826 0  -1.592358226312689 -0.02069981702257359 0  1.526043115197219 0.495739232592286 0  -1.506128149301513 0.5528746445539151 0  1.237897050817645 1.029184401479654 0  -1.191378741002458 1.084306169134027 0  0.03522704046218168 1.614433620578949 0  0.6367590035394673 1.485188350858959 0  -0.6323716506153659 1.481192628034842 0  -0.5096900249897889 0.06067984307021917 0  0.5111262357739318 0.08821582244110028 0  -0.2222683605313058 -0.3209919446198752 0  -0.26450417898482 0.5040729452776029 0  0.2525492025944728 0.5109701514104714 0  0.2507185341726674 -0.3126242906810122 0  0.6967639362435002 -1.649918427534792 0  -0.7684583760976966 -1.620428319937199 0  -0.04168011010878848 -1.768649436689395 0  0.8563055992816274 1.143375911367841 0  1.137204760854558 1.411248826099831 0  1.381600349772847 -1.169102935468725 0  1.685119397574811 -0.4988333043034666 0  1.301421569889395 -0.3737956536835981 0  -1.34904717539142 -1.134209494316859 0  -1.735433332474372 -0.5097390799180207 0  -1.368548194925781 -0.3472493855688426 0  1.799811112890968 0.2362609980706092 0  1.588228415430584 0.8836609668161081 0  -1.034441645900488 1.463191803818156 0  -1.547503060228514 0.9458164731065156 0  0.386040616185247 1.780803368488042 0  -0.3011485278498302 1.798623819820664 0  -1.791233489427968 0.3129155606205898 0  -1.022212776755087 -0.8725742447962824 0  -0.03340729971852129 -1.304132201515779 0  0.5215416142322319 -1.205137634144696 0  -0.5688862675570836 -1.157786102749121 0  0.9831376325579536 -0.8897471901187151 0  -0.8175536403539615 1.143021248273729 0  -0.2664318605652165 1.380595288063694 0  -1.185106858105098 0.7132694621337892 0  1.208231004875 0.6231848943351234 0  1.184873033778741 -1.460055540048788 0  -0.5499559826296736 -0.2807638502541822 0  1.325154954755128 0.2028446305944756 0  -0.5908102651749974 0.3784404667976167 0  0.5720056621690458 -0.2512148219904944 0  0.2970742519703471 1.360662685101835 0  -1.870332066225912 -0.1859555471888746 0  0.4269719562843131 -1.825847648809825 0  -0.4813038554179757 -1.819225951917887 0  -1.342136717690161 0.2240433352909994 0  0.5799078355162227 0.4126085595442716 0  0.9126742572496769 1.644852400009168 0  -1.074258877666313 -1.541497716000764 0  0.0177863062754682 0.7341371254336175 0  1.09700022591413 -0.6078913900405262 0  -1.129028816808143 -0.5534770718242437 0  1.614579500425366 -0.9744815969563621 0  -1.611533576475359 -0.9624507075714277 0  -0.8397806734585466 1.702370342127294 0  0.01769938760606951 -0.5340354580677106 0  1.899275601121424 -0.09914426530798012 0  -1.284411960549843 -0.07198810984140994 0  -1.779935393134406 0.6864228756514951 0  1.281151066532032 -0.08986392514466655 0  1.777410374704075 0.6632534468891653 0  1.497719603365051 1.16702806130156 0  -1.448335745893982 1.226674949813313 0  1.00986668350214 0.8397306357633013 0  0.04535112286379962 1.911128206988036 0  0.5638108145007595 1.19814752034941 0  0.2388497918436701 -1.233141960158477 0  -0.5190095440407403 1.211502699215856 0  -0.2807508041444529 -1.167480767532592 0  0.7064019639069368 -0.9948847226434834 0  -0.9723101594656821 0.900805345951616 0  0.01417051749163042 1.335406052971909 0  -0.7461997815050215 -0.9564852831542049 0  -0.5711474417622313 1.750056591164406 0  0.6681769292915448 1.78963893215115 0  0.9289488664275015 -1.524876130745509 0  -0.7407579949259089 -0.06143530915069713 0  0.7503884570546797 0.1445564675089713 0  -1.25867341596545 0.4650835455499396 0  -1.844414911360582 0.06526254267460299 0  -0.2631397643133267 0.2277797565754225 0  -0.2561519480635044 -0.04453405587051802 0  -0.3088998137991742 0.7404952800011381 0  -0.3699648848770598 -0.5280604849958216 0  -0.004157032434718556 0.3833578658648279 0  0.2580558042950387 -0.02878593660036538 0  0.2647827628806 0.2415557845121924 0  -1.620856977877579 -0.2647032761635382 0  0.7055305392016528 -1.393167503905432 0  0.2459053481049427 -0.5758828749904448 0  0.4640850253039852 0.6429723541667184 0  0.01129629863719074 -0.1632370619115912 0  0.8717017014909803 1.396089417048243 0  -0.716647069164244 -1.37136094796036 0  -1.184005860846467 -1.318112661639649 0  1.768666039355994 -0.7536718597853815 0  1.381190646746982 1.390026875507726 0  -1.650728525725621 -0.7298704408775601 0  -0.408018080767515 1.5745420710893 0  -1.232619361528779 1.326418414825542 
[...]
<PointData  Scalars="f_2233-1"> 
<DataArray  type="Float64"  Name="f_2233-1"  format="ascii">3.4561018827885059e-01  3.4440206099334253e-01  3.3527183253832249e-01  3.4508891911568779e-01  3.2607664600285263e-01  3.3581252991659427e-01  3.7404837044572953e-01  4.1345864656098175e-01  4.4734960616347735e-01  4.6165974222747042e-01  4.3027123505406473e-01  4.4483571898501290e-01  4.5350708701243270e-01  4.6245726357293088e-01  4.3102495203623992e-01  4.7106954506663867e-01  4.2596878322548237e-01  4.2557602268208866e-01  4.5824654635115536e-01  4.2179233376119074e-01  4.5599785992250130e-01  4.5030832202805504e-01  4.4399234005520194e-01  3.8406511557730166e-01  3.6619837027745517e-01  3.1507646223374325e-01  3.4118848544458813e-01  3.2892768593270472e-01  3.3532211778062454e-01  3.4917395322521999e-01  3.5667818034515480e-01  3.4376358654676048e-01  3.5077080962367863e-01  3.5896038229843030e-01  3.6190119544940386e-01  3.7582378116445209e-01  3.5767870893402576e-01  3.7591776196337962e-01  3.7479720587345844e-01  3.8446308023143072e-01  3.7640657974314945e-01  3.8241509622821501e-01  3.8097888048381567e-01  3.8783900752587813e-01  3.9424567596823851e-01  3.6576717734217884e-01  3.7381857112163985e-01  3.8664752065137692e-01  3.7348355739678940e-01  3.7123804720138731e-01  3.8152678974592896e-01  3.7027984459338154e-01  3.5925851096029460e-01  3.6792911966833852e-01  3.7179319703665775e-01  3.5113704257168682e-01  3.4636719846380598e-01  3.4613930306775281e-01  -5.4149534179938688e-02  -4.3395542027843348e-02  -6.6064305984605887e-02  -1.0135962453010200e-01  -4.4195186829377446e-02  -1.1387102879635294e-01  -9.6204215590573128e-02  -3.4817491140532807e-02  -4.0892445160911749e-02  -2.9228279931841201e-02  -6.9647101688271248e-02  -8.5975542522409472e-03  -6.0357244476738202e-02  -5.1337095181798352e-03  -1.8237622035366084e-02  1.3932877964361917e-04  -5.2900341259419512e-03  -7.0520010415278320e-03  -5.7640981650573381e-02  -5.1526164312635452e-02  3.1036203450934535e-03  -5.5055073457871168e-02  -6.1163562008142670e-03  -7.1110946590910731e-02  -6.5488161882472792e-02  -2.1890209007206115e-02  -2.9494964689802665e-02  -8.0191603274933604e-02  -1.0772268719356563e-01  -4.7117726332103170e-02  -1.1590519861014512e-01  -1.0845298174010649e-01  -1.1086276493580983e-01  -1.0775005097885952e-01  -4.9974755089145700e-02  -1.0279590642158597e-01  -1.0039258623686237e-01  -3.4546163190983720e-02  -9.8969840463437195e-02  -3.4371972658629478e-02  -2.8942066749230295e-02  -8.5497378748231989e-02  -8.8976961664649010e-03  -7.0203335094452368e-02  -6.4244590285758976e-02  -5.4659312210789852e-02  3.5361116940377160e-03  -1.6281994116122470e-03  8.4085326036823591e-03  3.1923752692135577e-04  7.7024569109932607e-03  -5.4725006407050809e-02  -3.5875810457754412e-02  1.9814318932833960e-02  -4.6694838170979552e-02  6.4972992834717424e-03  1.1578866303481582e-02  -9.5786432725476350e-03  -9.1753940466965823e-03  -2.0855364859125612e-02  -1.5479381827897794e-02  -2.5455107036701778e-02  -3.2282729062342197e-02  -3.2064503873287423e-02  -9.9856178291813910e-02  -4.7821373452317781e-02  -5.4291586094751751e-02  8.2306091338731435e-01  6.7709382255144043e-02  6.5992275782776971e-02  5.3291943835066857e-02  5.2435619133000953e-02  2.6521747598921369e-02  2.4114872198928314e-02  2.0847304053932137e-02  2.1557461115356325e-02  3.3075834939887909e-02  3.5445501910319775e-02  5.1427267676584294e-02  5.4252118163178029e-02  7.6387702184021647e-02  6.9766252479364216e-02  7.0323689719286181e-02  8.0989167635842574e-01  8.0849886998386788e-01  8.6721346004082089e-01  7.9649710578133304e-01  7.9545360557549361e-01  8.6488573389575929e-01  6.0426071977496283e-02  5.8381167320020994e-02  6.6726470177672928e-02  6.2556342212810839e-02  5.8755999387851060e-02  3.5608614829312879e-02  1.8883828136338800e-02  1.2934971246485493e-02  3.5918832695892744e-02  1.8030806300591059e-02  1.6187649218761046e-02  2.4116558977007166e-02  4.0629083277927483e-02  6.2038778024684590e-02  4.3516731439956671e-02  7.2414019452151437e-02  7.3175141237892261e-02  2.5729863310684685e-02  3.5308123040269722e-02  6.9395319531884214e-02  5.8809932655548861e-02  6.0597596739489126e-02  3.0292680492971652e-02  5.5749154763689447e-02  7.3438987565986713e-02  4.6366404746754457e-02  3.5492387515559450e-02  4.5259951414478104e-02  8.2227464574797049e-01  2.3506827920865284e-02  7.9179299627644262e-01  8.1279055235632802e-01  7.1713743063139004e-02  1.5889878011539973e-02  6.2692529815577311e-02  6.0651676658534839e-02  2.5152963222219674e-02  7.8780899819680728e-01  6.4007856503927402e-02  4.9102177213226052e-02  7.8634981733238918e-01  2.3236569863777552e-02  2.1613740755978755e-02  2.4584389863120330e-02  2.4156526269042907e-02  6.4085907415001753e-02  8.9500147842097622e-01  1.6858452100161347e-02  2.1296114832116346e-02  3.2258472099402441e-02  1.8549909313653808e-02  3.1417477786361066e-02  4.6532199788084559e-02  4.9064313391295952e-02  4.9337082131188911e-02  7.2400097698559096e-02  7.5613544616619954e-02  7.2305075299878604e-02  7.3798673891228628e-02  6.6877284216782004e-02  6.5329934267385939e-02  5.3234656395269815e-02  8.1190449915170576e-02  7.0364012487348387e-02  7.0302482131026911e-02  6.6927729447086345e-02  5.4668582478466440e-02  7.7821682888282517e-01  7.7096857490745507e-01  3.4868375742064292e-02  2.0585851670050004e-02  8.1095704003240010e-01  8.3215750844430336e-01  7.6937934526703733e-01  8.9042060197325301e-01  8.0495626655531760e-01  8.3066908804793238e-01  8.0993508005384429e-01  1.9269196832375216e-02  6.0691441408257843e-02  8.9872039932764625e-01  7.7306889988940097e-01  8.5042301324418101e-01  6.5335607303596388e-02  6.0058418537641899e-02  4.4570834348603802e-02  1.7154443549584397e-02  5.0175168244516066e-02  2.0878914574955457e-02  7.3749063864995287e-02  5.6377141293219586e-02  8.7364828159098162e-01  6.6638201993190677e-02  6.8842036853611788e-02  4.2721999350981803e-02  4.2808504634182697e-02  2.2984850120034619e-02  1.2410884413656263e-02  3.2082996107354211e-02  2.7339206530117562e-02  6.1523021651282851e-02  6.1683158306456522e-02  7.5873516499714733e-01  7.7695616203295759e-01  1.8579234600765781e-02  4.4279198270571585e-02  5.2480661798786597e-02  7.9123882921989064e-01  7.4953482216461820e-01  2.8837458195449472e-02  1.5887719802957039e-02  7.5760481692608350e-02  5.1893820135703830e-02  6.8200709474844065e-02  1.8143978248907684e-02  3.9704166885480334e-02  6.5894173032785705e-02  2.2056965891262291e-02  7.5142983897487220e-02  6.5243853619288208e-02  3.1837552179286965e-02  9.0102398621985136e-01  4.2812101609230047e-02  5.5743355059232592e-02  3.5019593293871554e-02  4.6930584253733545e-02  1.7871671296106277e-02  5.5314770579621371e-02  1.1577050557709556e-02  2.7559189008133412e-02  1.3107748374182215e-02  3.3934443135760321e-02  5.0965781540404195e-02  6.0668553160131256e-02  6.3164184542604113e-02  5.7555248449517364e-02  5.1014707114490618e-02  5.3506611290166067e-02  6.4861552817184046e-02  8.4749542902248926e-02  1.5097007283237412e-02  6.3052610053894786e-02  6.4640649719466495e-02  2.2101271398982953e-02  3.3542827184730999e-02  2.4333279942771992e-02  6.6667488318388882e-02  6.0624365619115446e-02  6.8615935725434729e-02  7.0209438390731460e-02  2.9218916743068316e-02  5.8185210734053139e-02  1.6372229319759238e-02  7.4990795218399312e-02  1.3176326272325234e-01  9.0163681996761058e-02  5.8986399016654097e-02  6.2908423582954329e-02  1.1495575124693501e-02  2.5606502440902634e-02  4.1465545244190674e-02  4.8611590297856708e-02  2.6558946237512662e-02  3.1410309128210676e-02  9.0364124598549020e-02  1.9190236727237412e-02  1.8258013713722022e-02  3.6381114874700228e-02  5.5582316743966326e-02  1.2412066686844353e-02  7.4482349143976237e-02  1.7926598799928906e-02  3.9120301218300839e-02  5.0113878721163296e-02  5.0066435856642444e-02  1.3378302975238771e-01  3.2608514668026868e-02  2.2019273801959761e-02  3.8363638922432643e-02  3.8632516468848938e-02  3.8421363985873029e-02  5.0364920066142529e-02  7.1591721250308854e-02  6.5870397912950587e-02  5.4107911723651252e-02  1.0777817268670989e-01  2.4496840648879314e-02  3.1083909030127404e-02  6.6696034219366498e-02  8.2457811342826426e-01  1.2995621139328745e-01  7.3818048429235963e-02  7.1990548015230998e-02  1.3058144710299573e-02  8.0032269642334664e-01  8.0066063876646243e-01  1.7774002010954408e-02  7.9514600526493973e-01  6.5082477131624310e-03  5.3540185931081827e-02  8.4190621202902027e-01  1.3023302154187827e-01  8.3356375928638163e-02  5.8933630770778719e-02  1.3150288904639806e-01  1.0130021594888806e-01  4.8036415088529856e-02  7.2123927493318696e-01  8.7331996320360872e-01  6.9502370275745726e-02  4.9998356232700457e-02  4.6364958765671316e-02  7.8948824467899503e-01  6.2553886508663753e-03  6.0437818521574808e-02  7.4890451824587201e-01  7.9380652051050959e-01  1.1836273484905468e-01  7.3377439475012962e-01  7.2247674669396256e-01  7.8322696230151834e-01  1.2660445392888250e-01  8.0550929397591578e-02  1.2774704955278868e-01  7.2820541429551089e-01  7.2636832366021686e-01  2.1027082440778583e-02  6.9107394841731576e-02  4.2890206079613948e-02  6.2043454391554766e-02  7.8120153227728015e-02  1.7350774302376779e-02  1.8731901599521029e-02  2.7205568092872369e-02  7.5174037909441960e-01  7.3266195038106519e-01  6.6303305091856793e-02  4.4772636054618842e-02  5.4024871681143602e-02  6.7958949614427541e-02  9.7681534101095466e-02  3.6457542652576870e-02  1.6757933203230525e-02  7.9978529806731902e-01  8.4669568653824001e-01  9.1466439058283167e-01  8.1161927492511110e-01  8.7932243130601118e-01  1.5055222381475688e-02  2.2387567283462934e-02  6.1783836560989396e-02  2.7876873413973158e-02  4.2335120884012409e-02  2.5287732541899682e-02  7.9608100111728197e-01  7.0157821748085836e-01  8.0984747880992455e-02  7.0766530452671361e-01  4.0811649054417011e-02  5.5972853444907704e-02  5.7411577105605960e-02  3.0952568154293418e-02  9.1208617332979719e-02  5.7816833512397053e-02  5.7162882339466287e-02  8.8735129609062113e-01  5.1083156887816256e-02  3.8024728761798438e-02  5.5204831506929265e-02  1.9989924540533228e-02  9.0409991749185216e-03  8.1908338421520614e-03  5.0758362956315618e-02  2.1057695932820777e-02  2.8624591518733242e-02  6.1586423965331767e-02  6.7442829429281578e-02  7.1948198133434366e-02  6.3753596826199327e-02  3.9065819547722681e-02  7.6668568580670032e-02  7.9078086001155112e-01  6.4202343957947730e-02  8.6434816666526793e-01  7.9852502831279748e-01  8.0442856503594407e-01  8.1315222354587546e-01  8.2228109682481432e-01  8.3592941373875707e-01  8.4884366800605637e-01  5.0798883020309153e-02  8.2408273246608954e-01  8.1774790397906472e-01  6.0253628689914518e-02  2.7934541334117362e-02  1.8523752581843026e-02  1.3800565335757312e-02  6.5843589046568091e-02  4.7979678328816028e-02  7.4137210151930463e-02  5.7029771861285480e-02  2.2576883168419191e-02  6.6096770450314202e-02  1.5627844559653065e-02  6.5845054288538429e-02  6.4834028546798747e-02  1.0441133078476741e-01  1.9083227065106186e-02  8.6707755300068856e-01  6.6820884807519340e-02  8.6634022006939904e-01  6.3243680652179862e-02  3.7126381822543991e-02  7.3695229774691895e-02  6.8716855578501712e-02  7.8802923969981231e-01  2.0126929137297894e-02  1.0286191551738325e-02  6.8934789917400416e-02  1.1123722640863985e-01  6.3076058390124368e-02  2.4868261282655429e-02  2.9855348203736285e-02  7.9219354534223174e-01  8.0408733562647117e-01  8.1273984274127309e-01  7.8694070289313203e-02  1.1430926767643309e-02  4.7849400646494317e-02  5.3554981242771707e-02  6.2551702158595762e-02  2.4892788642381768e-02  5.0642824296573366e-02  3.2534056250496678e-02  1.0210026076174512e-01  8.2114160995127683e-01  8.3455635575767773e-01  6.6102474213026882e-02  6.7618814547510731e-02  6.7659759664002908e-02  1.6629092964643502e-02  1.8678261611933332e-02  5.0190678710190333e-02  1.4386964721038009e-01  1.2912489940575192e-01  5.7102001808620427e-02  1.2137454408884735e-01  2.6985367299932915e-02  3.2889348790425932e-02  3.6646091775224793e-02  5.0289818463815458e-02  4.2757320103375331e-02  4.0205026966884161e-02  3.8644094835539267e-02  6.9577546194772105e-02  1.3433498439504948e-01  8.8690732219771951e-01  2.5060010369509021e-02  6.6290356716010898e-02  8.1893224945149701e-01  8.4480840228732446e-01  6.2229740044892817e-02  1.1501438015838171e-01  6.5413688889929378e-01  6.1985241837708080e-02  5.9609948217004480e-02  8.5628290302751420e-01  1.1773528435634248e-02  8.0219575095095386e-01  8.9490743379065471e-02  8.1445218277359932e-01  1.1831384799549283e-01  6.5487097837010277e-01  4.0744951292389350e-02  5.0924653352828919e-02  6.2464298825270527e-02  4.6293268191104284e-02  5.6859284273546452e-02  6.9547016773388828e-02  6.4460550967765248e-02  -1.1990138490030488e-02  6.5271649512821550e-02  5.7996078447707988e-02  7.5037466596898597e-02  7.3627511180932151e-02  2.9399185667592680e-02  8.9042962869996378e-01  5.4654522865064156e-02  7.8435071819033741e-01  6.7538715710209626e-02  3.8582584923091343e-02  6.5036413161832438e-02  6.9111555635496411e-02  1.5623497993473106e-02  9.4107970103945240e-03  1.1752470075356140e-01  7.3513019215361602e-02  6.3673080350921757e-02  1.2379264458356245e-02  3.0886849678131986e-02  2.6851952324371313e-02  4.6299740709096343e-02  2.7077435181638389e-02  5.6913526591650387e-02  1.2538210827452923e-02  1.9212838943353801e-02  2.0897684434173145e-02  7.1261765756574197e-02  7.1102156059021440e-02  3.5331911994646782e-02  1.8988992097259096e-02  2.5451853472050166e-02  1.5345818238704711e-02  1.1969498675033378e-01  2.7986373742192192e-02  7.1223673559789802e-01  6.7197913096025297e-02  8.0791826978446513e-01  6.2373005839655896e-02  8.7603819645052461e-01  5.4177456348824343e-02  3.9347361825945330e-02  7.8809762030351571e-01  5.4534479592750595e-02  6.4303438358634901e-01  6.6968841377185354e-02  7.3257477339640320e-01  6.8247735472348997e-02  1.0874979334867298e-01  5.6657801424899491e-02  5.6845777271475807e-02  5.8969333279525561e-02  4.9805937172351329e-02  2.7898193136295997e-02  3.4820747451861971e-02  4.3805461582623509e-02  5.1753394280521177e-02  3.3473363818049010e-02  4.4035456403087011e-03  2.2906583530620788e-02  8.0988814449683322e-01  6.7958891688833734e-02  7.5261228518590928e-01  6.5698221449237482e-02  6.2879608518570773e-01  8.0341356191616853e-01  4.6492984997611925e-02  2.4114920911245404e-02  6.4128621604160208e-01  6.4011217298960077e-01  7.9871134595101645e-01  -1.4880292403766014e-02  1.3153168551763341e-02  3.5145041230674544e-02  1.4716966933461535e-02  1.9718838873111811e-02  5.2351729510256982e-02  2.8749399241098997e-02  7.8499411389366514e-01  8.0225132032948376e-01  4.1719447621443251e-02  1.3633904969711869e-01  1.7906417459950384e-02  2.3211886113091211e-02  2.2144012979309881e-02  6.3711846011757090e-01  6.3129443797391091e-02  5.5679312862522264e-02  6.1428283207930735e-02  5.0532078925008238e-02  6.7586132442106608e-02  7.8372406995804922e-01  8.5171163257953664e-01  1.9823350322231859e-02  1.7052253827183773e-02  6.5307728362129014e-01  5.9101428308520804e-02  5.7229347234065475e-02  6.0336996056052243e-02  1.2095571119304958e-01  1.8972997106456703e-02  1.7354471177556091e-02  4.3468881636747815e-02  1.8929734961128902e-02  1.9859265257885547e-02  7.7896993657094085e-02  7.2709984254984039e-02  6.2644085666785351e-02  4.5300326183053387e-02  4.7110768190405099e-02  3.9897613554144208e-02  6.7828950952599304e-02  9.7878380466182827e-04  8.1121185879259639e-01  4.8942685773407713e-02  5.5042004347058943e-02  2.3402342684253126e-02  6.6718798246255900e-02  3.6583587792471527e-02  3.6686996479839223e-02  8.9121650131552710e-02  6.8227512786297226e-02  7.2523399594934715e-02  3.1837362910611865e-02  6.8926355345696855e-02  6.8149451331984620e-02  1.5895219395112993e-02  6.3153011717775653e-01  6.5124357380809872e-01  6.3220850287962357e-02  8.2669899366647559e-01  7.4642227415388479e-02  5.8995632558961487e-02  7.7949102055266317e-01  3.3894605949730018e-02  -9.5562045542521065e-03  4.2527286564297280e-02  1.3907033788456430e-01  7.5013124003200454e-02  3.1900463185307398e-02  5.7645344320757935e-02  4.3587301011031289e-02  4.9089560468436280e-02  7.3921762384896755e-02  9.0704993342885354e-01  5.7523491201329720e-02  6.4874223038750303e-02  6.7486243940090507e-02  2.0576554207042380e-02  3.1992137336774508e-02  -4.2990088999343883e-03  1.4734025959113659e-01  2.0839020914293290e-02  6.4578361174544102e-02  2.0139069631369001e-02  1.6840361985485883e-01  5.8424579781691979e-02  7.1834958418138528e-01  4.8522726546343181e-02  2.2929953278645533e-02  7.0152320666703391e-02  7.7278481823769907e-01  2.7856628077059603e-02  6.3380900151645125e-01  7.7763693888986674e-01  4.0310559667782783e-02  5.9932242721590000e-02  5.7343225073602413e-02  5.2408177846186121e-02  7.3504226969474479e-02  7.2245619611623735e-02  4.3411915134709225e-02  4.8144002012725944e-02  2.2528019919570069e-02  1.7538226748894457e-02  1.8724795476345937e-02  2.0257193218077348e-02  7.6273299166304553e-01  3.2392504150712542e-02  5.0588029419515963e-02  7.9070692549395227e-01  1.4978993657509829e-01  2.6739731548351752e-02  2.6935920782891729e-02  2.9724057494232233e-02  2.5230328104579446e-02  1.2858948932651898e-01  7.1363503547833704e-02  3.4808092629467303e-02  8.1689386015159449e-01  1.5480634706615051e-01  -2.4628244534191133e-02  1.7991649159880586e-02  1.9622767052797647e-02  6.4475165799804182e-02  2.8646464516083305e-02  8.4198220569220472e-01  5.7301937938498207e-02  5.1642766879188000e-02  1.6536829594602739e-01  4.2725616378669097e-02  1.8843914943172238e-02  7.1145824694168136e-02  6.4943494784270500e-02  5.2309582400077756e-02  8.8458443033545848e-03  8.6950250021114433e-03  2.3672129038454864e-02  3.5025440957785398e-02  4.8474563773179928e-02  6.4145953480377160e-02  3.7196663461259986e-02  1.6743884771248699e-01  6.2859470539814477e-01  4.4260972957743241e-02  2.9933158021578334e-02  3.1915246028183047e-02  2.8702612353872718e-02  5.4209948053129231e-02  4.2544518213168951e-02  1.8814489967401114e-02  2.0678952518127101e-02  4.1427132890715000e-02  4.9186684496198431e-02  6.2880398052434033e-02  9.0635586720068706e-01  1.7605331176430351e-02  5.5951781261783622e-02  1.7450315872757166e-01  1.4838549438203164e-02  5.9050700745051110e-01  4.1306318991460429e-02  6.1523930332456978e-01  4.6721207020669196e-02  7.9956378525513816e-01  7.8368610360268265e-01  7.8641569463684802e-01  5.2660073103951897e-02  4.6827571394008387e-02  8.8170953517418049e-01  6.1414863876579673e-01  7.9438159211407289e-01  4.6921591838654582e-02  7.4741688568488882e-02  7.4322142155720222e-02  7.6181670557599196e-02  5.2391263578719614e-03  3.9015415301435409e-02  4.2702375541814275e-02  4.4040039214571641e-02  5.5665272784198843e-03  1.1775651515486363e-01  7.4866104883471063e-02  7.3136340399827873e-02  7.2824682152026698e-02  1.8102315003504503e-02  1.0146080002225985e-02  2.7684343944231690e-02  1.0010961448764805e-01  7.8162231323858666e-01  7.9279989136506912e-01  2.7720672998851094e-02  6.7654627431391431e-02  5.5039076002573628e-02  5.9885986361525333e-02  7.5807433540899569e-02  5.4602534634115865e-02  2.1465112609064130e-02  4.0707115184708334e-02  6.0663286589962090e-02  2.9371348671304434e-02  1.6890795744094970e-02  6.6332725031724854e-02  3.9749564104120248e-02  2.0518328721118161e-02  4.0180747516477842e-02  1.6772295942590829e-01  7.1230508921645430e-01  7.6105675281914731e-01  7.6324085704501676e-01  1.2837899652864190e-02  1.1446685516036623e-01  1.3470709935646552e-01  6.4329237814590656e-02  9.3160176181556614e-03  5.4274984084819865e-02  5.2009184948931447e-02  5.9055250330991335e-02  1.8937242805738112e-02  7.1310062783791761e-02  7.0795520190154684e-02  5.8211943265415800e-01  6.5034486308840650e-02  7.0929995010185445e-02  2.9471486964978606e-02  6.8753578367270030e-02  6.8837296135832435e-02  8.9229009079622335e-01  7.6347343925104477e-02  2.4559054080496360e-