<?xml version="1.0"?>
<VTKFile type="UnstructuredGrid"  version="0.1"  >
<UnstructuredGrid>
<Piece  NumberOfPoints="678" NumberOfCells="1275">
<Points>
<DataArray  type="Float64"  NumberOfComponents="3"  format="ascii">-0.9209469909547848 -0.1068822718004292 0  -0.9154885720662156 -0.2064270810232405 0  -0.8994620635567891 -0.3046562034864713 0  -0.8727785070843397 -0.4008421971099703 0  -0.8357980492649516 -0.4935366574330588 0  -0.7891217217505621 -0.581568587238296 0  -0.733224939600767 -0.6640346512859581 0  -0.6686472678377577 -0.7401124323744326 0  -0.5961779383362532 -0.808708645668514 0  -0.5169277411009596 -0.8690317361362176 0  -0.4313975868422422 -0.9204651548489075 0  -0.340800189675227 -0.9623468206937225 0  -0.2463985778574987 -0.9941303524702706 0  -0.1490369641000752 -1.015514479909793 0  -0.04976671367874614 -1.026261069497461 0  0.04986042272416904 -1.026361905092645 0  0.1489910011188877 -1.015639299039115 0  0.2464520675773485 -0.994219486367133 0  0.3410391504002774 -0.9623218566492129 0  0.4312612945838076 -0.9204297062928489 0  0.5168409280226282 -0.8690055686322347 0  0.5963679640263753 -0.8086202336887734 0  0.6686673861449718 -0.7400415554594364 0  0.7331763042694556 -0.6641246716285006 0  0.7891602551392778 -0.5816259662096075 0  0.835967824304006 -0.4933764306122609 0  0.8728497376952313 -0.400839484447706 0  0.8994448324123889 -0.3047757309555375 0  0.9154997205324064 -0.2062019080652791 0  0.9208221741910044 -0.1065852771043563 0  0.9154958610753425 -0.00709732160184955 0  0.8993651157537527 0.09127814462405641 0  0.8727586862240251 0.1872426994691285 0  0.8358641503963288 0.2798292525848137 0  0.7891822643366575 0.3679926610549231 0  0.7331993535691331 0.4506014935320002 0  0.6686857511788347 0.5264936198550343 0  0.5962780404511621 0.5951211977240101 0  0.5167760143134755 0.6555161715823911 0  0.4313079029081385 0.7068670706867238 0  0.3408834131763665 0.7487669505827752 0  0.2463288107939145 0.7806862779052202 0  0.1489660506902955 0.8020305321763783 0  0.0499319916057754 0.8128431829722581 0  -0.04981225321575416 0.8128165534552066 0  -0.1490872519316176 0.8020507875872256 0  -0.2462714002541635 0.7806297739884851 0  -0.3409465402728064 0.7487715824424412 0  -0.4315364946030897 0.7068797473956455 0  -0.5168736908843923 0.6554728145505633 0  -0.596076987432564 0.5952101156087967 0  -0.6686306108412214 0.526457987404642 0  -0.7331220265028273 0.4505033406904878 0  -0.7890021513469432 0.3681939096439333 0  -0.8358294143269533 0.2800661887986367 0  -0.8728296879125229 0.1872084701147068 0  -0.8994759766888583 0.09122731716662787 0  -0.9155719820217165 -0.007162861224324486 0  -1.812170834212751 0.09992557541499344 0  -1.812170610256267 -0.09992593988112489 0  -1.790163708884912 -0.2987714118742623 0  -1.746447239571368 -0.4938423695610671 0  -1.681518536975046 -0.6829747584546787 0  -1.596180302029543 -0.8638093385145145 0  -1.491467156316958 -1.034159463271802 0  -1.368644138403248 -1.191960985157232 0  -1.229249039895649 -1.335251652004236 0  -1.074859750483823 -1.462398087135765 0  -0.9074598518910443 -1.571766080502096 0  -0.7290440318572976 -1.662055109288387 0  -0.541738203663655 -1.732186413329594 0  -0.3479405855261837 -1.781261886942965 0  -0.1499208070829902 -1.808721645210881 0  0.05000842091034808 -1.814228444408485 0  0.2492871573926803 -1.797717538403989 0  0.4455827938489043 -1.759376477543558 0  0.6363757623736097 -1.699701117199816 0  0.8195008385003694 -1.619375847943531 0  0.992670692822426 -1.519395693601549 0  1.153792077213058 -1.400972249888213 0  1.300907446315964 -1.26554299319958 0  1.432235224098864 -1.114746388457179 0  1.546145658798707 -0.9504656993263221 0  1.64135923179438 -0.7745258920564252 0  1.716588212588535 -0.589305491323974 0  1.7709866280939 -0.396934306310309 0  1.803902520475867 -0.1996554140309843 0  1.81492362939907 5.488191568717734e-05 0  1.803914329577767 0.1996023454358644 0  1.770986660093702 0.3969339007001422 0  1.716588265051854 0.5893052651431644 0  1.641359540223873 0.7745261730718099 0  1.546165171404412 0.9504234534431474 0  1.432226594756722 1.114747249395752 0  1.300874500121502 1.265573805290408 0  1.153791470904473 1.400971568305218 0  0.992707977697623 1.51936885420756 0  0.8194958823799039 1.619367643210256 0  0.636337319950765 1.699713141106888 0  0.4455437193324216 1.759388633357356 0  0.249286672992167 1.797725441533243 0  0.0500033209368663 1.814237379956178 0  -0.1498294656794487 1.808729199311955 0  -0.347985740946642 1.781251194369017 0  -0.5417762877910386 1.732176860183751 0  -0.7290537828860465 1.662058520553612 0  -0.9074214033488336 1.571793953879514 0  -1.074858267034247 1.462397242401363 0  -1.229248820512899 1.33525211271311 0  -1.368647601533967 1.191956275417241 0  -1.49143872496609 1.034195837166654 0  -1.596200297858105 0.8637675681177619 0  -1.681516126338346 0.6829798802324573 0  -1.74644737809692 0.4938416659829178 0  -1.790163387425245 0.298771981196925 0  1.870759332459914e-05 -0.1067871771411785 0  -0.1811318767332229 1.305794823535281 0  0.3171814750274837 1.276328690154755 0  -0.729296756733545 1.10554498128487 0  0.7687581324682875 1.080252913417119 0  -1.143469170793267 0.7026067512030711 0  1.154899011163638 0.6764794076351404 0  -1.32949180997565 0.2625690369202883 0  -0.04986743797229849 -0.5651613423377184 0  -0.4282908654186603 -0.2774075319318673 0  0.3713058368268543 -0.3790871484085849 0  -0.3170589351657635 0.2279307889279937 0  0.1472289937584255 0.330171586400104 0  1.333063093546072 0.2513940422899581 0  1.360331712514417 -0.2272931650262118 0  -1.347979578788183 -0.3024148097823993 0  1.228212296728829 -0.6649723126603063 0  -1.187158310279114 -0.7359581851393628 0  -0.9137817792940148 -1.071271162177584 0  0.9556427971610781 -1.038454404167798 0  0.57046576552385 -1.300838629950494 0  -0.498796226901165 -1.332664640168686 0  0.1421768470427457 -1.414327119471418 0  0.4827637738276094 0.02727326596615607 0  -0.5189760228914679 1.385941460491457 0  -0.1740664779122139 -1.340186977428004 0  -1.064299880912049 1.035634879799031 0  0.6244755859291741 1.366073963039657 0  1.140375794201671 0.9929572071467355 0  -1.498951845199266 -0.01459850671943908 0  0.125688121536477 1.516879361822779 0  -0.3666338802537737 -0.588992289305919 0  -0.5977894335356446 -0.008764995281703807 0  -0.1302219732805239 0.4848021076308892 0  0.2585053805775021 -0.6655295930185546 0  -0.4052589311566945 1.068899076277579 0  -1.20740899271847 -0.04603211131514922 0  -0.8395012619697758 0.8044661906118626 0  1.421292647992054 0.5383460680059865 0  0.857487182459046 0.7784366006842208 0  0.4468752167607598 0.3247903091428279 0  -1.407650053421746 0.5550557395759251 0  1.520075929658037 0.0220164814361986 0  8.743777163704255e-06 1.089950362060203 0  0.5031942968567984 0.9810430054982664 0  0.6267514339921116 -0.2807726963510299 0  -1.088044440830293 0.419726801254992 0  -0.3375809659440497 -0.03247110625663939 0  1.451975319489887 -0.4936411935861779 0  1.092299182185746 0.4003055560553666 0  -1.420231598633882 -0.5757074294397349 0  -0.3070518292136678 1.529111116711433 0  0.2669869575280029 -0.1319923729185941 0  0.2507610415277904 1.03254222318948 0  0.9938265496765522 1.202198240500017 0  -0.8630120148732356 -1.321133892777159 0  0.4165143082363237 1.509023038496198 0  -0.8637024605573679 1.321859940625793 0  -0.6002090985912464 0.8909243336940501 0  1.174619943174366 -0.04293724736009414 0  1.215720339469387 -0.9419694868802629 0  -0.5604619516721511 0.2730980433032291 0  -1.175063683601959 -1.005077781064762 0  -0.06073992352416496 -1.569631517094407 0  -0.6460649089283124 -1.106432163639663 0  1.133431621657424 -0.4213029314782107 0  0.9807885737902927 -0.7706485500489698 0  -1.134961873636361 -0.4701563729415798 0  0.8444412252358815 -1.289024863414487 0  -1.353108198113689 0.8316160892037099 0  0.2541431473279214 0.1112994844201 0  1.330009166291103 0.843614444279602 0  -1.547741710768881 0.3614822964107776 0  -0.2216623435886848 -0.3984032130103116 0  -0.07872772953865062 0.2509621425615473 0  0.3938998193551959 -1.499203146946364 0  -0.3412395029619754 -1.529520735155127 0  1.572164980766565 0.2548894074689125 0  -0.1945659078197309 -0.7583432759706974 0  -0.575738687632914 -0.4684818511011421 0  -0.6668032566264531 -0.2400300811045361 0  0.04901723422761749 -0.7851250204574431 0  -0.4019019022858601 0.4486274426413086 0  0.3002824014833893 0.5101116181823649 0  0.6927130844479872 -1.06662655930906 0  0.5267184210588085 -0.5540052726294413 0  0.002819078730496826 -0.3390053233518341 0  -1.118041721361088 0.1669457207735834 0  -0.9420002743241765 -0.8153100589255743 0  -0.9241462972594753 0.5863748057414002 0  1.11896392363135 0.1759553504861046 0  0.9534983528207036 0.5760497756148805 0  0.3241993178810151 -1.236656546685706 0  1.569132375863375 -0.3047279365627117 0  0.09385551968255339 1.294297391246524 0  -1.568959061373118 -0.2343834947096228 0  0.657947666112441 0.1553272159752557 0  0.6851964925351514 -0.06582740180124323 0  -0.09121059006862015 1.504189086582634 0  0.08000667771740248 0.5810464930811406 0  -1.130393795355279 -0.2510937414478387 0  -1.377373887697828 -0.846802964345703 0  1.438504880978627 -0.7071948307356808 0  -0.332730716673083 -1.192976535643236 0  0.1447175423362996 -0.4912644895241371 0  1.139812177603149 -1.135107273677191 0  0.8118685815440169 -0.8892596046217043 0  -0.7590726617659446 -0.9346781080822352 0  -1.083229512287389 -1.189840453720548 0  0.687162674941047 0.8916470628687883 0  -0.198961282782734 1.010671270364192 0  0.5961331538802886 -1.501811832764752 0  0.486555191762374 -1.115617276182289 0  0.8430296164987365 1.360484203949541 0  0.5083230081259592 1.1910606487396 0  -0.6849757596617488 -1.448123271580544 0  0.1398250663022234 -1.621985324336378 0  0.01611621336127142 -1.239178853427727 0  -0.9962816390498932 -0.6192016929566049 0  0.4617790932642842 -0.1701581284110986 0  -0.1831010015838894 0.08636561561217924 0  -0.1949674246725165 -0.18861927503194
[...]
<PointData  Scalars="f_145-1"> 
<DataArray  type="Float64"  Name="f_145-1"  format="ascii">5.3170196291181548e-01  5.5006638175039890e-01  5.3906487816559190e-01  5.4237239925081326e-01  5.4070147428399051e-01  5.4819768481873499e-01  5.5158160717859694e-01  5.3626854382997080e-01  5.3721261668107356e-01  5.5495681780337680e-01  5.2751022849439611e-01  5.5282773611493896e-01  5.3487977412012266e-01  5.2808443395551574e-01  5.3421010240907518e-01  5.4194889802437662e-01  5.5244326404117483e-01  5.2726161888145984e-01  5.4725998149071087e-01  5.3546031747335543e-01  5.4081159511584986e-01  5.5132561751245657e-01  5.3883553665666384e-01  5.5059082636818779e-01  5.4020689203405292e-01  5.3895885981852332e-01  5.5309417782733228e-01  5.3846023115104169e-01  5.2158790473070482e-01  5.4873341603656312e-01  5.3556474012500344e-01  5.3395654302170159e-01  5.3649521925403343e-01  5.3306312177199733e-01  5.2778083528003139e-01  5.1601077015789953e-01  5.3131252029300446e-01  5.2416115063581736e-01  5.3635361902953083e-01  5.3227931196179123e-01  5.2913398934369471e-01  5.3889819273005035e-01  5.2525538089865853e-01  5.4082447576125481e-01  5.2122858839687425e-01  5.2560076914950637e-01  5.2009397577544014e-01  5.2670617663028141e-01  5.3968268736806813e-01  5.2500064127018065e-01  5.2382938359802877e-01  5.1994540935397460e-01  5.3589278690836362e-01  5.2692681309536094e-01  5.2483614653933452e-01  5.2084851959427603e-01  5.4672654549712008e-01  5.2586244523168946e-01  1.1288685112149409e-02  5.7023283567802924e-03  1.0486857623907950e-02  2.6351785342396863e-02  1.6920990806814671e-02  1.2140182047846412e-02  1.9437347233714798e-02  1.9602264059643798e-02  9.1492125453786610e-03  -1.0048294945006088e-02  -1.0314912739151328e-02  -3.9102255663206759e-03  1.9183667824607857e-03  1.3386201542857239e-02  4.1802605965014549e-03  -6.5739149955293674e-02  -5.7259721063156483e-03  2.3067637476259996e-03  1.2837838774614842e-02  1.8798071413433492e-02  1.1265676048042874e-02  1.8812463711929912e-02  1.3330915269202407e-02  1.3899879075179550e-02  2.1223580520913776e-02  8.7970781862910432e-03  1.6844849908976535e-02  1.1101304549730254e-02  -5.2187483863504025e-02  9.2075129245438661e-03  1.0166252892179475e-02  1.0120606805000694e-02  1.6954982195497802e-02  2.2046722175898172e-02  -1.1737813414756423e-02  1.2082467740654752e-02  2.1212380742148051e-02  1.8693558678413411e-02  1.6070356104637029e-02  -6.1092453557111681e-02  1.6044129532156257e-02  2.0593003625102531e-02  3.0228695967483666e-02  2.3320830159996843e-02  1.8472798990018253e-02  1.4964105516250442e-02  2.2860079894590091e-02  2.2060917169535246e-02  1.5003384767965429e-02  -5.5506537436192167e-02  1.5230079241312039e-02  1.8912665826349151e-02  1.2227663254249397e-02  1.2710090232728847e-02  1.9479361502195116e-02  1.7082477821164170e-02  1.1030765456200301e-02  1.1530128245814544e+00  6.8631768811166879e-02  6.9015100593594322e-02  6.7769721654603765e-02  6.8603660088085799e-02  6.4583652246315737e-02  6.5745812462631087e-02  6.5376597044093654e-02  1.1602893467890520e+00  1.1582257486650922e+00  1.1601224956987397e+00  1.1437660084604344e+00  1.1406657114520993e+00  6.4949250850803927e-02  6.5605531447866669e-02  6.4839864459936905e-02  6.5459491621130309e-02  6.3638752296679271e-02  6.2156102491480764e-02  6.2022364975912646e-02  5.9765416562715473e-02  6.0593319995822320e-02  5.8658453227555370e-02  1.1479925694407576e+00  6.7255583722004061e-02  6.5657523563839637e-02  6.5256238429275429e-02  6.6875866914156146e-02  6.3924480682761853e-02  6.3542140620747603e-02  6.6547057921518174e-02  1.1535106065643093e+00  1.1394768717018093e+00  1.1286839664895627e+00  1.1547068447980213e+00  7.1492984731427664e-02  7.4802233485883343e-02  6.8606395769899006e-02  6.2614916770248580e-02  6.3401069815439401e-02  1.1257558576941300e+00  6.3267504105470621e-02  6.2484192555799199e-02  7.6677866362574079e-02  7.3775313467692213e-02  1.1428344475757868e+00  8.3931056228905704e-02  1.1510995106692725e+00  6.2393464991112549e-02  8.1329784628388788e-02  6.1319086726931551e-02  6.5156857569583060e-02  1.1534708405609557e+00  7.7711236080380219e-02  6.3423326406989500e-02  5.5562626277627536e-02  6.4642086683142211e-02  6.3114743658859107e-02  7.3524642197443507e-02  7.7158975984995701e-02  6.0186101783229966e-02  1.1029458071464648e+00  5.9770509459535839e-02  5.4625445427023286e-02  7.5164023686170048e-02  7.5713490826271143e-02  7.4448143883770343e-02  8.7339794824790484e-02  5.7630256631818338e-02  6.1079604055404565e-02  1.1463814789135485e+00  6.0636056464933356e-02  6.0426052425502398e-02  1.1608201475311009e+00  1.1433162923614346e+00  5.6098425801165364e-02  5.4855597167230895e-02  5.9899259665592515e-02  1.1324956350517761e+00  1.1355692220241023e+00  1.1232014808598425e+00  1.1385602482434498e+00  1.1099458852752311e+00  1.1068848949228032e+00  8.0194933186211431e-02  1.1222039954993055e+00  1.1588853954616904e+00  7.8306580080277813e-02  9.0154451711594863e-02  9.4691436755523870e-02  7.7259374107084111e-02  7.8279829356119282e-02  8.3480622058021231e-02  6.0221069218714063e-02  6.9780891484823762e-02  5.9847404225006999e-02  1.0875603448686748e+00  1.1177785544053636e+00  6.6850099163442908e-02  1.0942133152606617e+00  8.5312962765518918e-02  5.7742234372827279e-02  5.8378478236770705e-02  8.4161366549897698e-02  1.1624094423226226e+00  5.6167751653521537e-02  9.6908232115025930e-02  9.0944790716872601e-02  5.6508941704103054e-02  8.1094430828087635e-02  9.7129239421248251e-02  5.3223851401064851e-02  8.7848181694851646e-02  6.2944885068950296e-02  6.8516593428928782e-02  5.4387235607213584e-02  5.2372303496610338e-02  9.5537080540507566e-02  8.8893292386010292e-02  1.1486928930194824e+00  1.1478748561111685e+00  1.1554493877152656e+00  9.1170110188416323e-02  6.7454422593549002e-02  1.5019565489076525e-01  1.1582777123226113e+00  5.9065558562199881e-02  5.7549009937625954e-02  5.6797888326992049e-02  1.1467099070723370e+00  1.1478728274761145e+00  6.1038098343213908e-02  6.0305177357047920e-02  5.7480889468916593e-02  5.8335854357343953e-02  5.6693795679121320e-02  6.5981343118426197e-02  6.5750558678780879e-02  5.4191426595708109e-02  6.7348606244132400e-02  6.4692400056252305e-02  6.5164866966647347e-02  6.9478683082420278e-02  6.8572252214701049e-02  6.0204363743354250e-02  6.6573556102739906e-02  6.6878336071497499e-02  6.4640347691805489e-02  5.7231572527197343e-02  6.1108832727724133e-02  6.1007068324573338e-02  5.8322493686631095e-02  5.1124719503978740e-02  1.1504535163205838e+00  1.0728676982422354e+00  1.0713112301711634e+00  1.0939526085255693e+00  1.0602835596876496e+00  1.0448064260510199e+00  5.5888678625715844e-02  5.6298851366096546e-02  5.9752438131242834e-02  6.0626226473676992e-02  5.7847598788587695e-02  5.0108589197408161e-02  6.5369957441518647e-02  5.1495568741168257e-02  5.5816823762780368e-02  5.6997635296490386e-02  1.0624706282073628e+00  1.0603178092745147e+00  1.5023365564062074e-01  6.6439377895338589e-02  6.9250784250643918e-02  1.4970042372021811e-01  6.6699973339525195e-02  7.1738266216267416e-02  5.4973130991583130e-02  5.8729758991180103e-02  1.6655096729794860e-01  6.6590185991640641e-02  6.3984561140379079e-02  1.0477912623043384e+00  5.7325928269923672e-02  6.0057564291861126e-02  5.5812125019279901e-02  6.5709393521532614e-02  6.7829329019102380e-02  6.8419266736243503e-02  1.3442344039295859e-01  6.3570376028999301e-02  1.1360342328744191e+00  1.1626201403534628e+00  1.1595983379176520e+00  1.1529794395109629e+00  1.1389314944941540e+00  5.6178498158218890e-02  5.2980633744868201e-02  5.7014142251730321e-02  5.8131029697239600e-02  1.4782521348607594e-01  1.0677774861777753e+00  1.2604011707039028e-01  5.9014539205952350e-02  1.0562179790328556e+00  6.4442357191678054e-02  5.9657273255188152e-02  1.1635589895840586e+00  6.0601152948491784e-02  1.0042066081843706e+00  1.1611806945876315e+00  8.2391550736931052e-02  6.1250686656156600e-02  6.9160058007177339e-02  1.4766544616685826e-01  1.0306427440902868e+00  1.3707035137469517e-01  7.0169833336263213e-02  1.0581162102278912e+00  6.1191700903020972e-02  6.3558935169742758e-02  1.4900874446946463e-01  6.4645161429919967e-02  5.6646693632304283e-02  6.2333479770864328e-02  1.1362385580885292e+00  1.1353174793844170e+00  5.6599473375621365e-02  6.1707592381437928e-02  1.0397847390205612e+00  5.0856487885031221e-02  6.5992351661460891e-02  1.3963175924795584e-01  1.4661582125416475e-01  6.8562128046125534e-02  6.3703984532062816e-02  6.4146555877418646e-02  6.7243111968093669e-02  6.7677002260425820e-02  1.5643352217461740e-01  5.4223502624161375e-02  1.1571395747629694e+00  6.7751824110993980e-02  6.3532287635846466e-02  6.4851716016332564e-02  6.8091373158977342e-02  6.2029279666441492e-02  6.5507952612011366e-02  1.1422470250039807e+00  6.1306649476016453e-02  1.6152787633728558e-01  6.4673497088783491e-02  1.1449310597314912e+00  5.4366705316197327e-02  5.0922027611959839e-02  1.5959824450322241e-01  5.6436079625212125e-02  1.6422143179703116e-01  6.8545028621578713e-02  6.8987014139885547e-02  6.2006825335497208e-02  5.6061097693199273e-02  6.4784244349050418e-02  1.6984141673519049e-01  1.1560205119173965e+00  1.5221124761633417e-01  6.8957554666604595e-02  5.6423155443087077e-02  6.0435109987886940e-02  5.8743016802309395e-02  1.0141216954442698e+00  2.6055171372822938e-02  1.6627753374707316e-01  6.4231025348978982e-02  1.0032507312860337e+00  1.1516831889277015e+00  6.7158070776478465e-02  6.3634031810695962e-02  1.6887778531074529e-01  6.4149077631067100e-02  9.7914150149144197e-01  6.1154427852576285e-02  6.2111863475166854e-02  1.5806204898486179e-01  6.5549018462756209e-02  5.2477644705973402e-02  5.9147530331277946e-02  1.9679194957220592e-02  6.1585273800414467e-02  1.7720069474299971e-01  4.9792756986741522e-02  1.1569015266070868e+00  1.1508143626411365e+00  5.6541075433795669e-02  1.6986205133191140e-01  6.5244383209103890e-02  7.1166042984890016e-02  5.0752294999423672e-02  1.5461561587151854e-01  2.8611729477984849e-02  6.6191467165593459e-02  9.6218532987396499e-01  1.6945015294768173e-01  5.8611057486774483e-02  9.9936123207212768e-01  1.1422297512408612e+00  6.9836212292027300e-02  6.2779002260181946e-02  1.5871169648100966e-01  6.2094172307760834e-02  1.1476629982696493e+00  1.1510485977930298e+00  1.1548297635204883e+00  1.8065682001954542e-01  1.5967251889653866e-01  1.7395027444825736e-01  9.6585182113082046e-01  6.7259438610004912e-02  1.7763711055363110e-01  9.6304288769598634e-01  4.2113225601359772e-02  1.1353083876977259e+00  6.7967234752604189e-02  1.7844007167082082e-01  7.7786973555971903e-02  2.7639116286980538e-02  6.5906665018089103e-02  3.9270661159190888e-02  4.5397578123103806e-02  1.8201889919851913e-01  6.3892476774350490e-02  6.8352173174943312e-02  5.7203794278946160e-02  6.4933545261608716e-02  5.5507580473084746e-02  5.7933500542699259e-02  5.0895573031148167e-02  4.9516004489423185e-02  6.6896506060873565e-02  4.5284159110162876e-02  5.5713288631626862e-02  5.8424692554646836e-02  6.4859284709934295e-02  1.6263465163167246e-01  1.1586494076687677e+00  5.1919127931811436e-02  6.8443901622402603e-02  1.7752125909998928e-01  9.6060399023329501e-01  9.5776800149534358e-01  9.4737465754301042e-01  9.3815880640498117e-01  6.5641693231350523e-02  5.5954312920265613e-02  1.8691253330004193e-01  6.3425744461151484e-02  1.1561397413170886e+00  6.7269418402517198e-02  1.1426276949253158e+00  4.7490050162701768e-02  1.1387427540334429e+00  9.3916996638268102e-01  2.3479649235325178e-02  6.8839159093730104e-02  5.6668792718637374e-02  1.1528290783825206e+00  1.1545528957756306e+00  1.7780567791298696e-01  2.3904336421034532e-02  1.1504751996567608e+00  5.6989934920777079e-02  6.1058691169398202e-02  1.1586233596388604e+00  5.5192357077361323e-02  5.5057201332590698e-02  6.1332379696817103e-02  6.4072844788185673e-02  5.3779383014914896e-02  7.0123445868384940e-02  1.1459035577170427e+00  1.1500670555814450e+00  8.8956400831741211e-01  6.2744329282398856e-02  6.1197723068608857e-02  1.1395861706278332e+00  1.1446103040506053e+00  5.9183902450966816e-02  5.3300288478564703e-02  5.1965991104470019e-02  6.6083458414204516e-02  6.3942091778850532e-02  4.7660922637847769e-02  6.2407480983148446e-02  1.1625448149356512e+00  1.1626329208756392e+00  1.1428274923083921e+00  1.1399169764644144e+00  1.1428090072848318e+00  6.3780611111218619e-02  6.4900581640913543e-02  4.3789504799076624e-02  5.4095440689894574e-02  6.1915437976925350e-02  6.4432057943117529e-02  5.4044062152993490e-02  6.5991140318313934e-02  1.1604972825132238e+00  1.1055634993726458e+00  7.1033888303928011e-02  1.1377934474416280e+00  6.7456886148437978e-02  5.0701969470428702e-02  1.1043600240006746e+00  6.6678920447315090e-02  1.6441315356668687e-01  1.9075157540986087e-01  2.0071554077865311e-01  1.1582270905407894e+00  1.1604837326749440e+00  9.4183064689125062e-01  4.9540738072876865e-02  9.1830650014492099e-01  1.8285334360369060e-01  1.1609211606637606e+00  1.1329478466630594e+00  6.9224056698953540e-02  1.1610388185138416e+00  1.2808614751503519e-01  5.7502414320766769e-02  1.1282587498765522e+00  1.9362107855559577e-01  6.0759679334571534e-02  5.7798373635408393e-02  6.5956908604308889e-02  6.3988479087933925e-02  6.1098662624389996e-02  6.7116678597897869e-02  8.9632221513335575e-01  1.1535778747046905e+00  6.8392888459435724e-02  6.4689093938724379e-02  1.1471296978497396e+00  5.6397608869430751e-02  6.8813430572126175e-02  4.2759985706557868e-02  6.1399737518037401e-02  6.1769483565615797e-02  9.1930727180057314e-01  5.5970288899615604e-02  7.2144272001894730e-02  6.5120742095146913e-02  6.5759819871372416e-02  6.9377888964343534e-02  7.2318348178236069e-02  1.1341168534561161e+00  1.1397020679267587e+00  6.3508242945593027e-02  9.2337179261108038e-01  1.9664928452545000e-01  6.3897454803670192e-02  5.3164249552471156e-02  9.6006061800015668e-02  7.1541756085659242e-02  8.7711584252223307e-01  5.8905061254662182e-02  6.6320737314914238e-02  6.6407615304959380e-02  5.4387684063500585e-02  5.1387772179421053e-02  5.2675868192890364e-02  6.4002872775618114e-02  2.1745246997580411e-01  1.3462824433630266e-01  5.6951588607550119e-02  5.7870364296684441e-02  6.4474139466898159e-02  5.5722275997309015e-02  6.5056889546267649e-02  9.0708813144064560e-01  6.5999621677160780e-02  6.8397554891730730e-02  7.0480535493640181e-02  2.0313776529148928e-01  6.9959371577324028e-02  5.7976916611224207e-02  1.1602200900370443e+00  4.4514212970620699e-02  5.1385049984155357e-02  4.8452780547617265e-02  6.5062123212884265e-02  7.6200661815948686e-02  5.8436759813389388e-02  1.1536634613325421e+00  2.2945418913181176e-01  9.0626393212595302e-02  6.3245035496503732e-02  6.1657971282610954e-02  4.5778871619903759e-02  9.9400413359012174e-01  3.6888319301917619e-02  1.1533888064934730e+00  5.8805460739505898e-02  9.0446683257381955e-01  8.5393080307905000e-01  6.9932863993753605e-02  2.3008010092132999e-01  7.8218669006718519e-02  6.4351695758418773e-02  1.1345614634782284e+00  5.4018140480034893e-02  6.2245991269578214e-02  6.8712650786571128e-02  6.9695195133547036e-02  6.7016462180668201e-02  1.1037346804742960e+00  8.6599175884323343e-01  5.9548966529519548e-02  1.1616594298007168e+00  1.1599911684408315e+00  5.7418653521633882e-02  5.4535497936877481e-02  5.8201078516838034e-02  6.0748227106312933e-02  5.8476169404874066e-02  5.0960393936325996e-02  5.7547325017337995e-02  4.6336040484063701e-02  6.6713985137098947e-02  6.0312869285625577e-02  2.3362915193425984e-01  5.8082638612305865e-02  1.1131259012327877e+00  5.2571703320092651e-02  2.1369900583092097e-01  6.3851447631040475e-02  6.9485416799867111e-02  8.5928218157498404e-02  5.9061354933329667e-02  1.3621292747251970e-01  5.3026296991545069e-02  8.8965588030683151e-01  8.7856722881512517e-01  5.1607757026152494e-02  3.2367049959611427e-02  6.2387307191876823e-02  6.3746162940941584e-02  5.4703542027962418e-02  2.3302412837631845e-01  5.3711692026231918e-02  6.1683927564277687e-02  4.7055652430475221e-02  4.2448414424590512e-02  6.4559016040440467e-02  6.0906236517700225e-02  7.7191524005140552e-02  8.7526585680883062e-01  1.1581091359415459e+00  4.7942532015323870e-02  5.5005721870215366e-02  4.5268888371080958e-02  8.4678481110701287e-01  6.2091334786471809e-02  1.1614375299651896e+00  </DataArray> 
</PointData> 
</Piece>
</UnstructuredGrid>
</VTKFile>