<?xml version="1.0"?>
<VTKFile type="UnstructuredGrid"  version="0.1"  >
<UnstructuredGrid>
<Piece  NumberOfPoints="1198" NumberOfCells="2284">
<Points>
<DataArray  type="Float64"  NumberOfComponents="3"  format="ascii">-1.01156518205557 0.1670803239348219 0  -1.001832497597905 0.05306026763016525 0  -0.9787687011716593 -0.05890059069816869 0  -0.9422354714526704 -0.1685854151329969 0  -0.8931945657374716 -0.2731865673001654 0  -0.8326394890590474 -0.370734113480119 0  -0.7616157427163087 -0.4606340138153043 0  -0.6824875332881086 -0.5400459427063994 0  -0.5991181302971194 -0.6073218604220355 0  -0.5146133436013407 -0.6622436170111546 0  -0.4294402184087338 -0.7064393808142588 0  -0.3412074160751097 -0.7422857161584873 0  -0.2517466631846627 -0.7693564920866088 0  -0.1627711224761556 -0.7877136835233661 0  -0.07584771725847327 -0.7977332629210483 0  0.01058777479110135 -0.8002492060313487 0  0.09649798705496479 -0.7954770106914556 0  0.1837731216060036 -0.7830359490993282 0  0.2725442602810366 -0.7624838217551657 0  0.3619308761010903 -0.7329395917904493 0  0.4490221467438579 -0.6947918734380159 0  0.5335069744790703 -0.6479062221111281 0  0.616123504210269 -0.5912303226684471 0  0.6975303131846092 -0.5217134268099713 0  0.7742032546930534 -0.4406154383083482 0  0.8428939792909759 -0.3495523732025829 0  0.9015906391969826 -0.2494271307355958 0  0.9479894730157514 -0.1431398261964239 0  0.9812287316622826 -0.03338869062227619 0  1.00128589792522 0.0786863157405534 0  1.008199197433432 0.1924844195094999 0  1.001682662185552 0.3066048542742186 0  0.9820879988130492 0.4179584640888187 0  0.9495528951788887 0.5265489241630282 0  0.9051506349164617 0.6298113872084551 0  0.848689847844974 0.7283851431876484 0  0.7819873775493364 0.8188958932033988 0  0.7049456085415755 0.9017214138895127 0  0.6191133883394021 0.9751303187118843 0  0.5252552580615967 1.03876722350172 0  0.425478569057149 1.091302385172945 0  0.3207187252794756 1.13244108965732 0  0.2116070795743117 1.161863353016911 0  0.09900297551518421 1.179214284887856 0  -0.01561190818356096 1.184053803526753 0  -0.1282846521498729 1.176334189461797 0  -0.2389854715968485 1.156367920197865 0  -0.3467907924571486 1.124312318405909 0  -0.4514151196366981 1.080349284603747 0  -0.5507358275359026 1.024652123318477 0  -0.6419451621191612 0.9590849869301835 0  -0.7256963388319321 0.8834346377706824 0  -0.8003268966129945 0.7989488726119462 0  -0.8651215014877098 0.706307248251169 0  -0.9186066037043235 0.60759602133906 0  -0.9608004008894898 0.5025567380919057 0  -0.9908203034601735 0.3928698641418306 0  -1.007778194514293 0.2816524130235944 0  2.466816596061844 -7.873828098002336e-06 0  2.458407088341276 0.2037172174881599 0  2.433174900021176 0.4060336529650971 0  2.391250741068816 0.6060763445068981 0  2.333370709745962 0.8004993923952537 0  2.25905024796956 0.9908998941453948 0  2.169504154495267 1.174075790946334 0  2.06513885491905 1.34922974922984 0  1.946446327894675 1.515522547568274 0  1.814945268453351 1.670771650858155 0  1.671080969729998 1.814647702371917 0  1.514779768517216 1.947017236877356 0  1.349678712704607 2.064898504465204 0  1.173727167517581 2.169752555445983 0  0.9909944194316836 2.259087505419987 0  0.8009397712761367 2.333244427805198 0  0.6060048154231901 2.391280957584402 0  0.4056192262355033 2.433299749229678 0  0.20371525770454 2.458460461491495 0  0.0004216902071494407 2.466874439102692 0  -0.2042199572305492 2.458402767725258 0  -0.4055331831016742 2.433310858941325 0  -0.605571888199761 2.391343233283517 0  -0.8014805376772506 2.333039499731924 0  -0.9904638004352107 2.259299002617027 0  -1.17454435814372 2.169305764002864 0  -1.3488211504427 2.065459812103412 0  -1.515158335052416 1.946685118734738 0  -1.670747345356401 1.814908864983571 0  -1.815274288296896 1.670380622448625 0  -1.946392357918233 1.515577989681084 0  -2.065416009585145 1.348891352942646 0  -2.169556840938894 1.17410431147725 0  -2.258925941116225 0.9913167328697815 0  -2.333175050664355 0.800969915581489 0  -2.391504654309748 0.6050788542618307 0  -2.433132983724483 0.4065385911090269 0  -2.45839115252988 0.2037150845161805 0  -2.466816698837635 -1.358674236264562e-06 0  -2.458391532497068 -0.203715614468147 0  -2.433148878809878 -0.4064592405816833 0  -2.391407082770012 -0.6055340115536759 0  -2.333217493143933 -0.8010003345974618 0  -2.259110668877492 -0.990929512823126 0  -2.169529963638783 -1.174154158253709 0  -2.065415488981242 -1.3488838378726 0  -1.946390278050393 -1.515579982998464 0  -1.815272011318776 -1.670388870040771 0  -1.670442045099955 -1.815220331298314 0  -1.515236896529655 -1.946684325934893 0  -1.349254217713319 -2.065198890423085 0  -1.17411137550343 -2.169562547121255 0  -0.9909371091222771 -2.259111466207935 0  -0.80099745345603 -2.333226181497827 0  -0.6055836046135132 -2.391402334803518 0  -0.4060377247211533 -2.433244470014223 0  -0.2037124305548289 -2.458462545874522 0  -7.310043975032708e-06 -2.466889159818105 0  0.2037682201082365 -2.458457245463897 0  0.4056054893211096 -2.433298331175581 0  0.6060724228702643 -2.391258267614432 0  0.800510829023801 -2.333370811455772 0  0.9909118723961157 -2.259053159561739 0  1.174489356541929 -2.169336883856281 0  1.349206086361506 -2.065227795037034 0  1.515241007736712 -1.946682022609991 0  1.670447082576638 -1.815227046869501 0  1.815276980654112 -1.670390073289144 0  1.946391258650186 -1.515576707817366 0  2.065453085015992 -1.348825310314522 0  2.169299612625138 -1.174544419931254 0  2.259260951627331 -0.9905413918446205 0  2.3332162749065 -0.8009923042567543 0  2.391269844476727 -0.6059893394666834 0  2.433298672190487 -0.4055323766714489 0  2.458393709026719 -0.2042253360633969 0  -0.001880631938912303 0.2134648392957912 0  -0.07739062126531369 -1.639179791624487 0  0.7192897571913603 -1.490369963555301 0  -0.841970994691599 -1.429949047345804 0  1.328850854112977 -1.022931349362078 0  -1.443497830172158 -0.8744119386432695 0  1.668834351485652 -0.3794153473194667 0  -1.728095099358049 -0.0931855612436939 0  1.722687561222149 0.312935402721199 0  -1.66725021728271 0.5872153041577832 0  1.469994767336292 1.02091820772316 0  -1.357089780704613 1.176308048673137 0  0.942938274243033 1.550804742761651 0  -0.8124867235543399 1.626586776224459 0  0.2515967106285119 1.807644893052661 0  -0.3088497367981779 1.884848702223736 0  -0.5104505256143799 0.1209947935165867 0  0.5120279495457197 0.2396976957799564 0  0.2742931724842244 -0.1969553145569445 0  -0.3082795491339537 0.6007205645046179 0  0.2117534836611397 0.6541491867782746 0  -0.5565256414521845 -1.866217862395326 0  0.3978650661063989 -1.904165835876525 0  -1.371364331274745 -1.384852523730209 0  1.280022344751694 -1.511878236643838 0  -1.877116239480302 -0.5687512330475573 0  1.793708495218704 -0.8813732797648071 0  0.256588047594817 -1.28643187824652 0  -0.3670517481854875 -1.260836879502024 0  -0.1850659198245076 -0.2378424326111704 0  0.8351510812078042 -1.043758020986189 0  -0.8920615223016111 -0.981967506183953 0  2.028802598537535 -0.09597966620340473 0  -1.41801732244959 -0.4374037992227219 0  1.236286150355386 -0.5853848347925643 0  1.905410532282994 0.7252809456936529 0  -1.994726090693516 0.2862056591040666 0  -1.763172575312319 1.030521331788555 0  -0.08558554541984692 -2.065066855507272 0  0.8065450463464316 -1.897471302261503 0  -0.9613924018408543 -1.8263954843994 0  1.383156717989179 1.471571860288698 0  0.6805404728561587 1.913516488065188 0  1.424970698953734 -0.03001169237573268 0  -1.246679871770199 1.607743178791611 0  1.615206681604372 -1.308272439420465 0  -1.090076008135848 -0.6714561682796499 0  -1.70902624726574 -1.18053958565717 0  -1.438908823939579 0.2087484401357747 0  -0.4004071910984171 1.503096666508588 0  1.389560346512533 0.5806273832424796 0  -1.299531435798637 0.7581115879693661 0  -0.9500158614229963 1.228503271834224 0  1.06497128691945 1.134843013348458 0  2.010905323439549 -0.5706744452765192 0  0.5302983718021108 1.490192048887787 0  -2.0810791484684 -0.2492712898783388 0  -0.02679096339037188 1.553351762064823 0  2.093106253149 0.2643045783905272 0  0.005384308127393339 2.096635134971665 0  -1.986919245596385 0.7634124910198822 0  -0.6731691659637186 1.984235944705668 0  -1.652098799948687 1.356545713220146 0  1.750267973929912 1.232593327781572 0  -0.05492105875203087 -1.291351350025544 0  -0.6283358355295248 0.4404830576879679 0  0.5978904710711582 -0.1081879659250319 0  -1.372845412021754 -0.1188587318512438 0  1.2061772295899 1.763413204654668 0  0.4873441816531327 -1.071975964756416 0  -0.5120424762755266 -0.2385455947942269 0  -1.038942347010466 1.871285887478458 0  0.5516199056474758 0.5858394184624354 0  0.3292561495752471 2.124470363195198 0  -1.779994402528745 -0.8703381403070549 0  1.171659040312792 0.819869383612465 0  -0.0484390988439095 0.8643902284722224 0  0.03420288722151562 -0.4530970918404323 0  0.766366769778781 1.261449923281268 0  0.9405925256396157 -0.7504044220808442 0  1.102238845508354 -1.23925430273177 0  1.403089628851607 0.2715698362414155 0  -0.6528396283426939 -1.167670722713349 0  -0.5468390161085291 -1.540389457584792 0  0.9995605490444067 -1.651826473093211 0  0.2347343343667382 -1.614340921288882 0  -0.6695162421837508 1.352244055058026 0  -1.127252158157137 -1.569037447850133 0  -1.082432409160863 -1.239129398914707 0  1.559854633494377 -0.6633488004503735 0  1.355378100933608 -0.3177745749316004 0  0.2109008111748553 -2.152331880034284 0  -0.3885033619002097 -2.127441283243521 0  -1.122709495982963 0.9896159890783697 0  1.722032823346874 -0.09704772526363875 0  -1.420027790557238 -1.674192558085957 0  -1.387035195909738 0.4864577739156152 0  0.9747907889228993 1.956062480167664 0  -2.193981242996567 0.08152699253976388 0  1.251745212891133 -1.798534819885261 0  -0.2763545170731274 2.177654684951104 0  0.2440863474691888 1.444645075789418 0  -2.053978387521825 -0.7879598895292237 0  0.09725730776487342 -1.856181861686315 0  -0.5565233834193442 1.732524942261615 
[...]
<PointData  Scalars="f_3581-1"> 
<DataArray  type="Float64"  Name="f_3581-1"  format="ascii">3.4397474311117238e-01  3.4052383351556242e-01  3.2514770985673191e-01  3.4158089284263587e-01  3.2913349285691740e-01  3.2929939959005805e-01  3.5035372848994628e-01  3.7386035090196457e-01  4.1949033445689921e-01  4.4844781234959513e-01  4.3425913136588773e-01  4.4697987230960795e-01  4.1940730113376795e-01  4.0486858030041012e-01  3.7826052584548608e-01  3.7597991361531313e-01  3.9075061470318756e-01  3.9831726356562863e-01  4.3047251987837637e-01  4.2152945404347009e-01  4.4109646119531865e-01  4.3681119098091420e-01  4.2895179362438879e-01  3.6907572377096570e-01  3.3955345239089413e-01  3.3043878562677081e-01  3.3875008236803023e-01  3.4924905665264677e-01  3.3673725580717029e-01  3.4509326780429822e-01  3.4540490657446044e-01  3.4338844960338966e-01  3.3811326452755552e-01  3.5658940758581020e-01  3.4786304100306020e-01  3.6258766444960061e-01  3.5377294993556335e-01  3.5947883620715176e-01  3.6982710995730150e-01  3.6140082272966290e-01  3.6440388553772662e-01  3.6183809553542556e-01  3.7806666879324929e-01  3.7692490163353104e-01  3.6961719202180437e-01  3.7201227610953319e-01  3.6057095639316150e-01  3.6151713874054592e-01  3.6984189902502967e-01  3.6607684490064868e-01  3.7026286185780333e-01  3.6130852612486208e-01  3.5832590188321162e-01  3.5710417299751890e-01  3.5381067543945588e-01  3.4914746984286804e-01  3.3468903682585194e-01  3.4573512654539951e-01  -8.8735821107831431e-02  -2.8933777174310133e-02  -7.7421507769079204e-02  -1.7670036318299158e-02  -1.2867387892623088e-02  -8.3028307993935513e-02  -7.5282156837148756e-02  -6.4743627882202628e-02  7.3094566652737916e-03  5.4878149198846916e-03  3.7266088105907410e-03  2.6490220790443809e-03  5.0365975921243967e-03  1.2411373235959734e-02  2.2488478035544462e-02  1.6694429757410808e-02  1.5344416521118157e-02  1.8857932709435119e-02  2.3136633157755420e-02  1.5524214042846483e-02  1.6551205645993595e-02  2.4310833408571344e-02  -4.4455727737575196e-02  1.2042665064268914e-02  1.5065021960910236e-02  1.1601978271246599e-02  8.4852338758017905e-03  -1.0805295961127869e-02  -1.1337500582734817e-02  -3.0735856802768524e-02  -1.0954789267509677e-02  -2.5684221006430862e-03  -5.1305350917922718e-04  -3.1382383920625025e-03  -3.0668903228520884e-02  -1.3115922998272521e-02  -1.7987125845034660e-02  -8.5600559073644861e-02  -8.7095536681206329e-02  -8.5811755472922274e-02  -2.0882593378603067e-02  -1.0694871591244430e-02  -1.5643120226429039e-02  -5.2227493041489418e-03  -1.1009520329482929e-02  -1.5966260276416219e-02  -1.2923067697491826e-02  -1.3375307598224933e-02  -3.6734355817358726e-02  2.2865900611068624e-03  5.3633048462145144e-03  9.8640713530887651e-03  1.3099944603699638e-02  1.4480566305325706e-02  8.9283409019614082e-03  1.5125463332166085e-02  9.4088148828715031e-03  9.6146134987394917e-03  1.5691244974321599e-02  6.2168194574105818e-03  6.6764999818038134e-03  3.5125353838042351e-03  -5.6099313675155429e-02  2.9797326528955957e-04  7.1693018964131229e-03  1.0950938060572348e-02  -3.1971507317886030e-03  7.4418224456866060e-04  -1.8236792147369067e-02  -5.8149133614620440e-03  -1.4068602394797673e-02  -1.6785879365014193e-02  -1.0939265988471079e-02  -4.8081306716415508e-02  -2.3395675074246666e-02  -2.0936004149925545e-02  7.9350421927211257e-01  5.7702765627091895e-02  5.6390062874504703e-02  5.3672183585450145e-02  4.3871722254269462e-02  3.8760093120586731e-02  3.4108411585281891e-02  3.4458245863540723e-02  3.7037228384847916e-02  4.1786050440006016e-02  4.8354571254285654e-02  5.2953972034646545e-02  6.1464916798189932e-02  6.4375397631983786e-02  6.9520606318218242e-02  6.8920782775522355e-02  7.8385331104582601e-01  7.7751920197082558e-01  8.1420776130947670e-01  7.7016010239544153e-01  7.6974701500217557e-01  5.6523249825649727e-02  5.7837066284224761e-02  4.5879661139465969e-02  4.9454007848694130e-02  3.3598939075096514e-02  3.6640883458490391e-02  4.6318996808604539e-02  4.6335049336278245e-02  8.1233442781549958e-01  5.1257180277264135e-02  4.7394795709523097e-02  3.2555807956526864e-02  3.1493110453188471e-02  3.2564092455477180e-02  3.9592258660146117e-02  3.5898055162297729e-02  4.5571384775609347e-02  5.6376752993403993e-02  5.4653822243083711e-02  5.2099753704719587e-02  5.3921709082620284e-02  6.4905432711903313e-02  2.8908331615046027e-02  5.7604915659910792e-02  4.1947798300358274e-02  2.9799767246269315e-02  3.8249748793560877e-02  3.2672858630366369e-02  6.6235422887956599e-02  3.9143457497083464e-02  4.3954278276259050e-02  5.7120166822952158e-02  5.2710725506756574e-02  3.1833570283369382e-02  6.4892055146179503e-02  3.1188554350246304e-02  7.2283303472203644e-02  3.2933575912413311e-02  6.7667187034712972e-02  3.9246370556332760e-02  6.4774263699814288e-02  4.8821862656912116e-02  4.5099017938360825e-02  4.1506930841743415e-02  7.6236900952162079e-01  7.8105007930691805e-01  2.3428069002552600e-02  5.6713242152672413e-02  5.4104246855920322e-02  7.9627575798503003e-01  6.0122350892628705e-02  7.5703352524684719e-01  6.5539129887698583e-02  3.5773633055020321e-02  4.2301508935249511e-02  7.6083685809717261e-01  8.2162375522200748e-01  6.0725306004999514e-02  3.9835487714947153e-02  5.0245869556717934e-02  3.0719836340083764e-02  5.1366705797687373e-02  5.6167338731462076e-02  5.3961187965301520e-02  5.7761588084515793e-02  6.5574022647922503e-02  5.0664262142437598e-02  4.8882555100758097e-02  3.6524847047356750e-02  2.8958929979718044e-02  5.4277237172586909e-02  5.3586934691613367e-02  5.0886773876186370e-02  3.3942389603857703e-02  4.3391269020231528e-02  3.9012344364527322e-02  5.8795614998657805e-02  3.0248643993243812e-02  4.7625054341714920e-02  6.4968314188025428e-02  7.8188329658324104e-02  2.9598658984468847e-02  5.8743490164484505e-02  6.7393618043904369e-02  4.1496731925443571e-02  3.5420269211879386e-02  3.7985034166395704e-02  3.0962827612773171e-02  7.0145820639141987e-02  5.2079113482863822e-02  5.0843306762202133e-02  4.3496506242888595e-02  7.5037275677899085e-01  7.5227471019214220e-01  5.8151580455377147e-02  4.2977281430003143e-02  5.8136830788132969e-02  3.9000226274160943e-02  7.4193024613300151e-01  8.5707798343179342e-01  3.5433208746973567e-02  8.4487967747132753e-01  4.2611428166046017e-02  7.7832148328727180e-01  4.6063719752364590e-02  6.2992219773720493e-02  7.9926141167694542e-01  7.8181470615072901e-01  7.9736261870116942e-01  8.0091803769047176e-01  7.4463877834478243e-01  4.1934747032528009e-02  7.7773416831273601e-01  3.2438394397919859e-02  2.8487638100972684e-02  4.2055367936387721e-02  3.3412722335929852e-02  2.7852043167141894e-02  3.3916187870524681e-02  4.6843124378151371e-02  3.4222152466800937e-02  3.4943986417270929e-02  7.2538109503597487e-02  5.3186428939226052e-02  2.9952168385787542e-02  3.0749947406761208e-02  5.7205340622868688e-02  5.5690704483882532e-02  5.0875359494016788e-02  6.8531175938374975e-02  3.8803565767992272e-02  4.6902906995180842e-02  4.6436136246618187e-02  6.2301831493483305e-02  7.6210169621220636e-01  5.0539894455600108e-02  5.4094353098316020e-02  5.7297651137435963e-02  3.4007277071808402e-02  3.9813837921997837e-02  3.3418739969086765e-02  3.4749782210635384e-02  5.3513354682479371e-02  4.5722289406312421e-02  3.9870264229141424e-02  5.0544561567300000e-02  4.3682315493523215e-02  7.6463177680245842e-01  8.1037276904543099e-01  2.8395802083501644e-02  7.4621995356498860e-01  4.4779418401529131e-02  5.7356546309482677e-02  5.3880844288659406e-02  3.9066715199374255e-02  7.3748796420662266e-01  4.8752482072016150e-02  3.9279204332979281e-02  3.1427138223905728e-02  3.2571702108542794e-02  5.4796688666952358e-02  3.0136680210714140e-02  4.5268390026041869e-02  6.1144567146092697e-02  5.8024667568792654e-02  4.3351454980419001e-02  8.4050070070212568e-01  4.0018395111704283e-02  3.5089450486031584e-02  3.7966753266452588e-02  3.8683311115162086e-02  5.7303212574829683e-02  6.7391814622111926e-02  6.4714936556596547e-02  6.4382618888855686e-02  3.3531020638991785e-02  6.6238514162968165e-02  5.9518082254947619e-02  3.4291872586600249e-02  4.9726570476354461e-02  4.2854764520660317e-02  4.4807021462706209e-02  5.3817444453887940e-02  8.4433319861587280e-02  5.9853229340021706e-02  6.9071895429032637e-02  4.3599253937699631e-02  5.0301519279770973e-02  5.2645267085470779e-02  8.1221761578042437e-02  5.9527818822899890e-02  3.5349058269705295e-02  5.8698533668651666e-02  7.8881903985653379e-01  5.1489210536632593e-02  5.1098187681727032e-02  8.0432065647199499e-02  6.3366733675183862e-02  3.4379145602667249e-02  4.2492561209818452e-02  7.4600984048475635e-02  4.7014575611429382e-02  5.5591342789942731e-02  6.0382509301091070e-02  5.1408015243774030e-02  5.1101772043126714e-02  3.3239584015642733e-02  4.5605207416537098e-02  8.0299301696821618e-02  4.9222508342447097e-02  6.6969458539499510e-02  3.3606377376522403e-02  5.6521809454941514e-02  5.7022941394375130e-02  5.6292973769122366e-02  3.2136549521229074e-02  5.3653608366246844e-02  5.2970090392555888e-02  2.7430541156729906e-02  6.1701409811627153e-02  5.3430098676144212e-02  6.1326045614077070e-02  5.3370976891380095e-02  2.7371807724308583e-02  6.3182080777114055e-02  5.3840705911670013e-02  3.4277201826206256e-02  2.4493228626933379e-02  4.5049574124451805e-02  2.2080525019050400e-02  8.0463931572810421e-01  7.9857122537221237e-01  9.5731902638471533e-02  5.1036621045365695e-02  1.1758264336800911e-01  3.9259393701805569e-02  7.1988659551302417e-02  4.5739742752601530e-02  7.7455355845314244e-01  3.5046740224188140e-02  8.3907607111398899e-02  7.9105803497714833e-01  6.0533626417486934e-02  3.0575636734380011e-02  2.4539748832115359e-02  6.6606684489104645e-02  7.6990769348351562e-01  6.8937299595493370e-02  3.8900067921374647e-02  6.3978142849312442e-02  7.7843165458353958e-01  3.3895167352487959e-02  5.2783103559713003e-02  7.3005989673139871e-01  6.3962459837976063e-02  4.3216697759505200e-02  2.5410069635987409e-02  5.8705444300989604e-02  7.1005885721817330e-01  6.9069631662072237e-02  6.9315673147395979e-02  4.7158033479146350e-02  8.2831592944601673e-01  7.0531560717336322e-02  3.4314582575020180e-02  4.2318301998937630e-02  3.9034804928987185e-02  4.5992856562856739e-02  7.1143660288089117e-01  7.1660239859179165e-01  7.8645657287532877e-01  7.1498135412263375e-01  5.0531221720404300e-02  3.6060424327693831e-02  3.5953853559297824e-02  3.2375119760825369e-02  3.6507928683903755e-02  6.9168635946227508e-01  6.0645196256810287e-02  4.6200508988012728e-02  4.5403649844312520e-02  2.2230317429427757e-02  8.1831971544115678e-01  4.1448456579817709e-02  2.6215008786556492e-02  5.5061148490218412e-02  2.5042314820960598e-02  3.2560335483234122e-02  7.6991731477713554e-01  7.0471350597618609e-01  8.0370452030154849e-01  1.2253841803178435e-01  8.7215009328858756e-02  7.7461654745366426e-01  5.4848393686430845e-02  4.5749494035262663e-02  3.9014991857375649e-02  5.7834497570400087e-02  4.7077557387905221e-02  4.9592064592540459e-02  8.2003461876562034e-01  7.6832306965701491e-01  3.2099864482158763e-02  3.2800203130081591e-02  5.4000461348573434e-02  2.9404104997354314e-02  4.0890449088143502e-02  6.9438217197587682e-01  5.4701469393661051e-02  4.3324882529534363e-02  3.6674186248210415e-02  4.2165914550951929e-02  3.7907334701362039e-02  2.8412482101184737e-02  7.1622872125580572e-01  7.6433174395966330e-01  2.9302758162887802e-02  3.2232856526179569e-02  4.1144302565902763e-02  4.4801503927094165e-02  4.4132158043729247e-02  3.3478937912671779e-02  6.0349358041566707e-02  5.0332941202163792e-02  5.3114062121105698e-02  3.6187405728806264e-02  4.6949075914925351e-02  7.0356228888556505e-01  7.8388445337137036e-01  7.9549364652425902e-01  4.4853904297188087e-02  4.5548928210627337e-02  7.7009040023453057e-01  3.8646732497685195e-02  1.1404591877965616e-01  5.1445954978486121e-02  4.8758802072198820e-02  5.4452478348199419e-02  4.9499245250122594e-02  1.0883844767732652e-01  4.1790808558219775e-02  6.8659185650564239e-02  4.7786753324167139e-02  1.0808282698077890e-01  3.6661683323230158e-02  5.5335778817386362e-02  3.5735729456839296e-02  6.7785804254411539e-02  3.6528686458120470e-02  2.9465991628928958e-02  8.1786767071437527e-01  4.0221222125319263e-02  3.4111104458281777e-02  5.6798400727505735e-02  7.8688232960000126e-01  3.7500085534074620e-02  3.6667044520461829e-02  3.5050553906347932e-02  6.8293076192845581e-02  7.7188382660006916e-01  7.7719409348265922e-01  7.8447810754210756e-01  8.0243300260951622e-01  8.0319699347434115e-01  7.9938389399905285e-01  7.9131665901504167e-01  7.8683198825500578e-01  6.3668243228573201e-02  5.2191773952184883e-02  5.8644352108479257e-02  5.7859932596823246e-02  2.3056055385270263e-02  5.3297906095563674e-02  3.2675303383990620e-02  7.7579009645680153e-01  5.6951696316722485e-02  5.5437411667290222e-02  4.1823055284290055e-02  5.3445193909188157e-02  4.9794951279485820e-02  5.0087778495972513e-02  4.7165869511371750e-02  5.6249940515039239e-02  1.0872987517774374e-01  8.5613947410617022e-02  3.1142847104746713e-02  4.2719941828321784e-02  8.4151562852610398e-02  5.9033301463958514e-02  6.0738121285443016e-02  5.1167142834486000e-02  5.0268489306788094e-02  5.1310116714449475e-02  8.0769454127176188e-01  5.5990644091651387e-02  4.8617624000459096e-02  3.5271171562714441e-02  8.2559134953853874e-01  5.7645482868929822e-02  5.7117781965456312e-02  8.0515688320550771e-01  8.0276329933647028e-01  5.0257783899610699e-02  3.2503335904140743e-02  5.5277126869871546e-02  5.5346163009095083e-02  5.6073933140169466e-02  3.1908793204051121e-02  3.6059293780404907e-02  1.3663281654522089e-01  4.1691303003028944e-02  7.6329482070770749e-01  5.9863414831252487e-02  5.5944878555384311e-02  4.7448344714521890e-02  4.7378858549299456e-02  5.1468998450054350e-02  4.3382492002889871e-02  4.9111923389788155e-02  1.3895073824576210e-01  4.8344614011278965e-02  5.7817472640915725e-02  5.5802206185076114e-02  2.3716682706625820e-02  6.7339688664273520e-02  4.7393566275186670e-02  2.4128991480163557e-02  3.0908151111094021e-02  5.1014560256632729e-02  5.3719522611486194e-02  6.9520218464920058e-01  3.0276022640312067e-02  3.4227278605253347e-02  4.7658206042591800e-02  4.5617653045667887e-02  6.7422565358886855e-01  6.2195768560214894e-02  8.3606768461777969e-01  3.4991506331003494e-02  1.2583174313352782e-01  5.6132536366661170e-02  3.9802697953043968e-02  8.4131366314789888e-02  1.1343870610688815e-01  3.5435958253977565e-02  5.7560009295684944e-02  4.8463953169421460e-02  7.9675011655661154e-01  8.1878558664064305e-01  6.7245529321327199e-02  6.6047081443316710e-02  9.2446129582426276e-02  1.2917305900136358e-01  3.3860666893648722e-02  3.3937800658007257e-02  3.2280145507825292e-02  5.8874352019393020e-02  6.1417602854912511e-02  5.7997633015139285e-02  6.4163696955183402e-01  2.3616088050177366e-02  5.1491574620471409e-02  4.5951977503329099e-02  2.5498409242673988e-02  1.3185488315836980e-01  3.7353071961855278e-02  6.6561009478510472e-02  6.7842478960072630e-02  5.6470438230754962e-02  6.9701289995503929e-02  2.5443566201580503e-02  2.5693887609002056e-02  3.2855410264951770e-02  5.5436950632251389e-02  8.3028982590001599e-01  4.2383279620671142e-02  4.2363229096204096e-02  3.4331820822102545e-02  6.6414966036535933e-02  7.5246038301832616e-02  1.2092976340523452e-01  7.8454783366390601e-01  5.1484646284898496e-02  4.1060747120589769e-02  3.5394162014455263e-02  6.6371200914256623e-01  6.6047464937235234e-01  1.2935601545313505e-01  4.2745539240549697e-02  3.6160806258740893e-02  3.7600293247264459e-02  3.9487738983673727e-02  3.5842397694419284e-02  3.3016713166204331e-02  1.0832315224330098e-01  4.0143650847441439e-02  5.8463388812576712e-02  5.8439547359159273e-02  5.7728328648646340e-02  5.4558091382453558e-02  4.2817033327322181e-02  5.5650001348487819e-02  3.6507328800488979e-02  5.8180534370224218e-02  5.1062516860971317e-02  3.3851145545308124e-02  3.2807444229145291e-02  4.8232135617279639e-02  4.6253517165254332e-02  5.3992552987456185e-02  3.4203148612775673e-02  3.1752010689299941e-02  3.0683726950333490e-02  6.3830652658198012e-02  2.5480337341499786e-02  3.7806207108807131e-02  9.3350666969145776e-02  7.9339314342922948e-02  5.9255373773176197e-02  3.6794568636191446e-02  3.9804701955289325e-02  3.7681013726690034e-02  1.2666754565402585e-01  3.6400211125632742e-02  3.3347009190696837e-02  9.3349717297263352e-02  3.7879213493312643e-02  7.6383712130459236e-01  2.8162662263234498e-02  6.0534547696977449e-02  4.7566143919269971e-02  4.5533531045573901e-02  4.6709994517327977e-02  7.7562195310105442e-01  4.0648822018656383e-02  1.0563329528071080e-01  3.2661533698972789e-02  3.4253956245203360e-02  2.3123810575583856e-02  7.7527051440532768e-01  3.7854382661254996e-03  2.3940951631104344e-02  4.9680383509036551e-02  6.7555284849049616e-02  6.6083098107844990e-02  7.6751246672740503e-01  5.8134247000885299e-02  3.5462511400414752e-02  6.4091963280921205e-01  2.6190321708343563e-02  2.5030245026484869e-02  2.6945938092807740e-02  4.4882449478190783e-02  4.0718452684081134e-02  6.9923155212238319e-01  5.2456879665951597e-02  6.8943543956406977e-02  5.7426542775264475e-02  3.4111213747491292e-02  5.1879845404699532e-02  1.2548382696086508e-02  5.3940192314968036e-02  4.6707946989497769e-02  3.5318676359177223e-02  4.3885797390774584e-02  4.5498621693161614e-02  6.9971130463882203e-02  7.0263074320637664e-02  2.9773230145411823e-02  2.8139556670508610e-02  5.7455827039977550e-02  3.5959609721566047e-02  4.1435004996242274e-02  6.3769605656914208e-01  5.3780476467215774e-02  7.6104681127726570e-01  6.2183707455729327e-02  6.3799082760558956e-01  7.7371271546541054e-01  3.8007110934728860e-02  4.1226892631454029e-02  6.1124870340220383e-01  6.5019703376923574e-02  3.3809338442113729e-02  7.6047002408414255e-01  1.0020724849542362e-01  4.7608590913600757e-02  1.3998623786213280e-01  4.5051783962912963e-02  6.8360199750541126e-02  3.1526095610087471e-02  2.6278770771196076e-02  7.7348262346786945e-01  4.0663453182827450e-02  4.4456560718215826e-02  8.2837617610777248e-01  7.9432909673842000e-01  4.2537731172193248e-02  5.1005769257101950e-02  4.6601938372375813e-02  7.5825476149167137e-01  4.5779922874708064e-02  7.5052466456900246e-01  6.9405115089833103e-02  8.0072312929335177e-01  5.7908141048530461e-02  6.3135233611976052e-02  3.3326436010752490e-02  5.6514453583353809e-02  5.3310399435439824e-02  3.8835821808846122e-02  1.6323972328358427e-01  5.2582590543178480e-02  3.3902636805794348e-02  1.0621419734193838e-02  3.3785267442210942e-02  1.0769813319500959e-01  5.0982324281673388e-02  5.7778858033486667e-02  5.1105287672272126e-02  5.0800961024698062e-02  5.9590840054736138e-02  7.7453082629997716e-01  4.5221585657557066e-02  1.0299068270856385e-01  3.4068015556539093e-02  1.0593704645446739e-01  3.4182680964795320e-02  3.3761870420678651e-02  3.3031867498357681e-02  4.0734860995705495e-02  3.1182760690691570e-02  6.0144399066571719e-01  4.4873388583170921e-02  4.4345239763929623e-02  9.9574073370625280e-02  1.3510986124481303e-01  5.8726759320922202e-02  7.5669345536737220e-01  5.8624678089849835e-02  5.5117270130847440e-02  3.4714964914618347e-02  6.4914428914309030e-01  6.3795690356497226e-01  4.8170979454119259e-02  2.7822325980776396e-02  9.6066827570746846e-02  5.3253120549221933e-02  1.3507410030381031e-01  1.1156211294159892e-02  7.9759095580965667e-01  1.4163704070851682e-01  5.7341054412855912e-02  1.1875399912118899e-01  5.8043805766904488e-02  5.6724558473594977e-02  6.5191057766927171e-02  6.4958937875270045e-02  5.1974145814333336e-02  2.6980906993465149e-02  3.8094433103499817e-02  6.6360743943982226e-02  6.6878852737093930e-02  6.5805224248421168e-02  3.1108161049658987e-02  3.0240479500760892e-02  3.4556366446490128e-02  7.6537328642803448e-01  1.0757716725818044e-01  4.5606779001262004e-02  7.2908447461256209e-01  4.4760837623007539e-02  5.6596656499767473