<?xml version="1.0"?>
<VTKFile type="UnstructuredGrid"  version="0.1"  >
<UnstructuredGrid>
<Piece  NumberOfPoints="737" NumberOfCells="1356">
<Points>
<DataArray  type="Float64"  NumberOfComponents="3"  format="ascii">-0.9318223543510176 -0.02367685471693919 0  -0.9328623237182029 -0.125753110270352 0  -0.9226952286180959 -0.2271868731153582 0  -0.9014194455279586 -0.3265753682285257 0  -0.8698169427457623 -0.4228836727316707 0  -0.8283069358216161 -0.5138085645191043 0  -0.7782381928621865 -0.5983347425207074 0  -0.7196623891075816 -0.677254489925758 0  -0.653579269645335 -0.7490631140697646 0  -0.5812659763574595 -0.8131539333330237 0  -0.502795294851934 -0.8692678104035054 0  -0.4193692427499499 -0.91677415008576 0  -0.3310685196001753 -0.9555775270921462 0  -0.2388225746856136 -0.9851624344217983 0  -0.1453832534668613 -1.004854530709967 0  -0.05018387321972428 -1.014854390500016 0  0.04638135846785447 -1.015088800617671 0  0.1419067258796757 -1.005399763424095 0  0.2354304541960408 -0.9861690282314375 0  0.3270979418418434 -0.9572367956852078 0  0.4154962433025306 -0.9190094865869084 0  0.4988310443181661 -0.8720255445967517 0  0.5781001189614218 -0.8159997623883015 0  0.651251013730782 -0.7519366744820235 0  0.7175517282763629 -0.680415522679417 0  0.7758959538140021 -0.6026489881147821 0  0.8266120453948869 -0.5178215484798594 0  0.8683965349658169 -0.4269513035954196 0  0.9004993049557618 -0.3312586911352313 0  0.9220706458574521 -0.2323023981786699 0  0.932738715326905 -0.1309113121655275 0  0.9322482032132173 -0.02836331088546787 0  0.920351354056176 0.07377607076163747 0  0.8972156097599538 0.174428818452429 0  0.8630163266593938 0.2717705016393527 0  0.8178089708621223 0.3651839999278342 0  0.7626887546273258 0.4530394288605549 0  0.6978065228658235 0.5346068736676272 0  0.6243018974878667 0.608396389709693 0  0.5429389554238455 0.6735848304795431 0  0.4547769294711863 0.7291698403074172 0  0.3599735258805511 0.7750964700596156 0  0.2610600449536328 0.8099283410623975 0  0.1590678941885144 0.8334789414349274 0  0.05457619150719752 0.8454568015624909 0  -0.0501241509483482 0.8457115091578142 0  -0.1540269456635631 0.8342734198825773 0  -0.256796099025081 0.8110572909351285 0  -0.3557126671170958 0.7766980500109182 0  -0.4495099970591405 0.7318858267496788 0  -0.5384046253066733 0.6764642798402751 0  -0.6207965088384653 0.6111678920055703 0  -0.6945122111831082 0.5378654301585882 0  -0.759554995212097 0.457169873499121 0  -0.8156290939490901 0.3689960429478243 0  -0.8612028540741928 0.27558959442716 0  -0.8957658944645646 0.178862779107002 0  -0.9194114316662011 0.07857586954549174 0  1.880770507789574 -1.891968024023201e-06 0  1.869748688574243 0.2033457979212614 0  1.836799906069695 0.4043099629110939 0  1.782312976314686 0.6005293507384166 0  1.706938126651376 0.7897116837705428 0  1.611554521548662 0.9696370721421568 0  1.497271272773436 1.138197551502292 0  1.365433203439198 1.293404332711205 0  1.217587824182612 1.433456509077837 0  1.055465380368104 1.556694910656371 0  0.8809703746861026 1.661687412151224 0  0.6961491694533258 1.747193131337422 0  0.5031588561777998 1.812211848872765 0  0.3042737428613473 1.855998492378548 0  0.1018196979546451 1.878014868129844 0  -0.1018224878336801 1.878014955865819 0  -0.3042774061771857 1.855996746997032 0  -0.5031584970397733 1.812220117815607 0  -0.69614367975299 1.747189492905056 0  -0.8809688827008811 1.661686575344888 0  -1.055463006091687 1.55668929676858 0  -1.217587557174919 1.433453661072595 0  -1.365433386016074 1.293405728723991 0  -1.497268620865169 1.138196398709324 0  -1.61155548423054 0.9696360186785636 0  -1.706942361078623 0.7897153875849646 0  -1.782319339090839 0.6005364630039488 0  -1.836792324763996 0.4043071247710236 0  -1.869746950573551 0.2033443295645554 0  -1.880771517157067 1.251786145856407e-06 0  -1.869745752985096 -0.2033493193264755 0  -1.836799127920714 -0.404311150254304 0  -1.782311767381151 -0.6005325648216144 0  -1.706940061715704 -0.7897189699029439 0  -1.611546224140741 -0.9696365931117457 0  -1.497263499538799 -1.138190820068463 0  -1.36542535543394 -1.293401401946076 0  -1.217579556193404 -1.433448446628308 0  -1.055459831755155 -1.556688643930696 0  -0.8809669090774102 -1.661685166539114 0  -0.6961428779858637 -1.74718704062722 0  -0.5031610671954478 -1.812216151561513 0  -0.3042730283237024 -1.855987242951692 0  -0.1018226665190455 -1.878004987017054 0  0.1018255360102998 -1.878011689440989 0  0.3042703697947854 -1.855995261244627 0  0.503159438365939 -1.812215934580419 0  0.6961443217439643 -1.747191591411961 0  0.8809693532668453 -1.661683759300097 0  1.055459902015332 -1.5566902466333 0  1.217584835367099 -1.433453665792738 0  1.365426290458763 -1.293402447875839 0  1.497270313879548 -1.138192465179717 0  1.611546709147514 -0.9696358875853395 0  1.706940533242725 -0.7897182841558661 0  1.782312655631624 -0.6005315260421306 0  1.836799822866522 -0.4043132109412343 0  1.869740450586019 -0.2033465157440769 0  7.292574594309149e-05 -0.06189334345920434 0  1.543950448692658e-05 1.363942835782079 0  -0.615601641388735 1.218708978315999 0  0.579254642232551 1.241158087195896 0  1.005492768570928 0.9366097870718417 0  -1.058911184243226 0.8873652283380797 0  1.299303569921453 0.5050398691737525 0  -1.329015269761155 0.4121511745916633 0  1.406053745006518 -0.04864853053785072 0  -1.410395606350011 -0.09005642056175436 0  0.000863336252640137 -0.5319031861581155 0  0.002621268781373156 0.3957037810322649 0  -0.4660568227925453 -0.007185079126892381 0  0.4218896583726561 0.136566928386226 0  1.331125688648029 -0.5003958937657157 0  -1.322160771962514 -0.5407820923186299 0  1.092113764833185 -0.9427174220129954 0  -1.09228950364515 -0.9426307564738373 0  0.7414442138777013 -1.249418795730598 0  -0.7415704246265237 -1.249069653755782 0  -0.1557433299790107 -1.448942476301216 0  0.2837380411668236 -1.425763266379645 0  0.400268024620537 -0.3200937018361407 0  -0.3874583783398687 -0.4136598751768906 0  -0.3510894917229632 1.479249541010667 0  -0.2763155332781168 1.145969658142121 0  0.3321297746587138 1.501908163456144 0  -0.373816808972202 0.3493557621464258 0  -0.9563998656593162 1.217842752968706 0  -0.4210436992693929 -1.275933920284098 0  0.9593413205837368 1.254931298690977 0  -1.360468403803983 0.7499618274549846 0  1.553019663946649 0.2461597584060751 0  1.315128918913518 0.8373222361923938 0  0.3287391151989286 0.4426783137805463 0  0.278306848497856 1.12638832327558 0  -1.577472114641674 0.2507675413427286 0  0.2955284243950317 -0.6161352682525887 0  0.6315570998221121 -0.1351412520868398 0  -0.2094181585881243 0.1264647021775167 0  -0.7412193896853176 0.9186303985547469 0  0.6933160803521011 0.944192926582457 0  1.559955373902467 -0.2991481895925767 0  -1.058635569077279 0.5661473639864382 0  1.212577837009124 0.194027412745808 0  1.363589763664096 -0.7972452589742683 0  1.021792081745162 0.5658496387079858 0  -0.6086363888240536 -1.48678222634411 0  -1.606594070802302 -0.2704935888745851 0  -0.6208218412249087 -0.2592560719587753 0  -0.2637252241144563 -0.6682195946795879 0  -0.6204002090619346 1.49041337037954 0  -1.212865499293756 0.1279246007968505 0  0.001955600747289847 1.099434255520156 0  -0.1136131138329144 1.610139159462505 0  -1.361968696635389 -0.8234054955594621 0  -0.1400882339689735 -0.2968495452034015 0  0.7619140923638725 1.429911510612373 0  0.5189515599360452 -1.55079002974075 0  -0.4887312771526172 0.9928124736101027 0  -1.176718804191028 -0.3173434947200682 0  -1.125178897893898 -1.195805995551603 0  1.029767749694112 -1.218061531538869 0  -0.8113522769715789 -0.9854037058986171 0  -1.045370376868566 -0.6796619755328022 0  -1.188185027765285 1.111343004202752 0  1.177652394647015 1.125397044927552 0  1.203698705261015 -0.256152489684212 0  1.082266702644738 -0.6602836576784116 0  0.8087397222893273 -0.9862265028042972 0  -0.1509557940754574 0.5904556131886205 0  -0.6083486842763963 0.2077586972541204 0  -0.3522045804509062 -1.610250642045355 0  -2.74927743943134e-05 -1.648217072106177 0  0.4949996583992364 -1.296773181954617 0  0.8460711709455624 0.7435250135490294 0  1.492967175669507 0.6658990485496938 0  -1.561040037417676 0.4969086620939215 0  0.1451601817707014 0.1656861734485188 0  0.6679940539954169 0.1038159788466989 0  0.5560272765753158 0.3324263939270399 0  0.09495943335680498 0.6105838419971439 0  0.1045275196643561 -0.7556756328050055 0  1.535488618117711 -0.6269301240706235 0  0.1336414514899887 -0.2961789779363274 0  0.2810796557821726 -0.08009464448198661 0  -1.646073771260153 -0.03573303680892687 0  1.641911538500408 0.02309211501140291 0  -0.7006426079646272 -0.04241986562964661 0  -0.884355823134237 0.7263624950010482 0  0.5655904083330718 -0.4932587666092975 0  0.05583526922702464 -1.289940032778212 0  -1.088769201656118 0.3270897297923518 0  -1.546180688736174 -0.6220482663803677 0  0.1288864782139033 1.637720654579196 0  1.178566187499595 -0.03339976104594947 0  0.573686734331208 -1.089148643979565 0  0.4864659852557307 1.036115966258644 0  -0.8478538324742989 1.429204825300105 0  -0.5591359119554843 -1.104181998796155 0  -0.2560008796490417 -0.0987948049962963 0  -1.184091714264423 -0.09598671442822598 0  -1.293020822853249 -1.048094780601117 0  1.230979451651927 -1.11823718156967 0  0.5616037144906293 1.556174893667248 0  -0.8625193193117284 -1.441154004276737 0  0.7381949205974428 -1.479963548888797 0  -0.5938481312672208 -0.4762889746930828 0  0.9098100539624531 -0.7983831768455774 0  -0.2056181283311181 -1.22726491708961 0  0.3245059703749251 -1.641876837533287 0  0.2475457891852764 -1.207651768748871 0  1.090280193501598 -0.4472613179656427 0  -1.393031549033267 -0.2996954932943706 0  1.502523562632144 0.4520590579204324 0  1.063538407639295 0.3483906818831205 0  -1.356188576053047 0.9716972055270262 0  0.7738088847370246 1.145943929268332 0  -0.3915448036732883 0.544558646947782 0  -0.4616591527377022 -0.6321143573259521 0  -0.430069730912459 -0.1998907041723496
[...]
<PointData  Scalars="f_537-1"> 
<DataArray  type="Float64"  Name="f_537-1"  format="ascii">4.5373913203501737e-01  4.4616545092550203e-01  4.5777457833291213e-01  4.5219893957233881e-01  4.4588928602795563e-01  4.7481281479752535e-01  4.9758069652690862e-01  4.8051028139050511e-01  5.1061466184819027e-01  5.1871616419041244e-01  5.0562161666507210e-01  5.2665114460309348e-01  5.1886198158645558e-01  5.0589842440081689e-01  5.1676687276357014e-01  5.0956455619506658e-01  5.1662717573006500e-01  5.2291230283306755e-01  5.2327033720720817e-01  4.9646780705912502e-01  5.1827248677040694e-01  5.1063678708987226e-01  5.1668715733106829e-01  5.1923001170312932e-01  5.0036800374723855e-01  4.8555401265039977e-01  4.8618295352343360e-01  4.5632137658481930e-01  4.4980464873961212e-01  4.6210772435929393e-01  4.4981164117704192e-01  4.4269067906322773e-01  4.5620288307696760e-01  4.4358281679675959e-01  4.4666896678626922e-01  4.4398535337677641e-01  4.4713603109109856e-01  4.5641503673057587e-01  4.3971350301550977e-01  4.5680805693895915e-01  4.4273195124281473e-01  4.5421032869164202e-01  4.5753296250877223e-01  4.3902710924619720e-01  4.4655310782575697e-01  4.4957781976684669e-01  4.5356556200786202e-01  4.5035625577144789e-01  4.4785354000275057e-01  4.4957637042245685e-01  4.5470294280989015e-01  4.5585833537516052e-01  4.4362112464354786e-01  4.5300931017056723e-01  4.5127945243464812e-01  4.5526864728606664e-01  4.4029129513806792e-01  4.4235052604956970e-01  -2.7075441195011398e-02  -7.4744075824951994e-03  -1.7411479751495488e-02  -7.2085325022633137e-02  -5.8944155735990010e-02  -9.0931763733978557e-03  9.8055692503206515e-03  -1.5980490149588363e-02  1.2704639179912552e-02  -6.2569568652388503e-03  6.5754321844522269e-03  -2.2407410875883876e-03  -5.4870152601246946e-02  1.0714800291929597e-02  -6.8528576252692690e-03  -2.7027901978546286e-03  -5.8477456175552256e-04  6.5432993608514267e-03  -4.4974405609170320e-02  4.0108500327550207e-03  -5.1949626943018502e-02  2.4275286251672665e-03  -9.4187988121705035e-03  -1.5026625307758092e-02  -1.1973672281763909e-02  -1.8275775833236873e-02  -1.4591655810865561e-02  -8.4536200078522070e-02  -1.9026024866879987e-02  -2.5726161275501775e-02  -2.5986246541607388e-02  -2.7761455089302865e-02  -8.0051106265558683e-02  -2.2638528035049559e-02  -7.5925991763255082e-02  -7.4506996419957228e-02  -7.7873113234469285e-02  -7.4737626152268172e-02  -7.4585329946780687e-02  -1.8628614413732772e-02  -7.1444532544406525e-02  -2.1875058879338195e-02  -8.2948862377303409e-02  -8.3220976500973015e-02  -3.2603356199330601e-02  -3.1319600515140135e-02  -3.0587919093645399e-02  -3.0056243512524276e-02  -1.8267844779226324e-02  -6.5934463754620101e-02  -1.3048945818915214e-02  -6.9511240443075634e-02  -1.8916679940254276e-02  -7.5774811939773715e-02  -2.1646399355630969e-02  -7.7750792404470373e-02  -1.6638566897671219e-02  -7.2825609633099031e-02  1.0159573974352198e+00  6.9495322175097185e-02  6.6970101365503340e-02  6.8493196244548832e-02  6.2050857758588998e-02  6.0838090830343999e-02  5.3239464678195028e-02  5.1048138354765661e-02  4.2376606096514773e-02  4.2968714613607496e-02  1.0747023180870583e+00  9.7168499405301789e-01  1.0007563303943969e+00  9.8889713878363195e-01  4.0999582945306846e-02  4.2554222868394623e-02  4.6919152728866736e-02  4.7701008369241696e-02  4.7698668077248943e-02  4.7074861297285137e-02  4.3244099237959188e-02  4.4197599571695799e-02  1.0411093113269090e+00  1.0550409608806937e+00  6.8552701964737950e-02  6.4428668479807466e-02  6.8023531206481205e-02  9.7044832833181016e-01  6.3128584500529050e-02  4.5693693049142024e-02  6.2489870941032775e-02  5.4843424441562753e-02  4.4836396631410834e-02  5.6168972661204609e-02  9.5695058178358816e-01  6.8336185557204859e-02  4.4993864858116142e-02  1.0807399890753684e+00  9.9969216741462674e-01  9.9477057014469572e-01  6.8063232423023881e-02  6.4589105166626207e-02  3.8876968014431260e-02  5.6114263791357026e-02  4.3668168178804062e-02  4.1246750481678161e-02  6.1011474745966472e-02  4.2143374013046464e-02  3.6867449711934147e-02  1.0127530125590494e+00  1.0886422951759800e+00  6.4982584706806776e-02  5.3244941415113017e-02  7.1626369557763025e-02  6.5944570574139535e-02  4.0935040980419973e-02  1.0432994820320605e+00  6.3853291755173569e-02  3.8973618786501477e-02  7.3390020019956342e-02  4.8625105185031693e-02  4.2637661298565166e-02  4.3809698721934943e-02  5.7078311423478141e-02  5.4181063506620740e-02  5.7619977874482003e-02  5.7564465839953345e-02  5.2107832443896794e-02  5.2370549762947187e-02  6.2665780680984245e-02  9.3249150186979579e-01  9.5421173962498496e-01  3.8543066577854196e-02  3.6861477529711868e-02  4.6342186987556905e-02  6.6595861479268645e-02  5.0485458089749989e-02  4.6735486619464889e-02  9.9193858515621502e-01  9.4799068671991349e-01  9.3816778272394385e-01  9.2242323248798241e-01  1.0790568659447914e+00  3.6527579208463612e-02  1.0433621102698889e+00  1.0148498470180816e+00  3.8682703825594668e-02  3.9529223328865278e-02  9.5257381897218474e-01  6.8773919269476888e-02  1.0318148979048041e+00  6.6543550926504949e-02  6.1859910153433909e-02  3.6164723467982905e-02  6.4450328799830897e-02  6.0715809800367858e-02  6.5220400627735625e-02  7.9870723136671831e-02  6.1331025789067684e-02  6.4810090015211513e-02  1.0172352236117941e+00  4.8683762757233552e-02  4.0244485200001824e-02  4.0743563356824858e-02  6.4173321887470061e-02  4.0359889162912305e-02  4.0378996857146646e-02  1.0132693395893579e+00  6.8319070081656427e-02  6.3461085659427985e-02  3.6462788933208624e-02  5.6931910262121979e-02  5.5473519400264633e-02  4.1463965789249220e-02  4.9190625976547386e-02  7.8300882902729213e-02  5.4364692359168049e-02  6.6131790967165871e-02  8.9116473005567975e-01  1.0343236615032034e+00  1.0208938937552705e+00  1.0811856748310633e+00  5.7974266907349234e-02  4.0735756496989295e-02  1.3207937497703412e-01  1.1531801005203643e-01  1.0629093715867246e+00  4.7960003888219416e-02  8.9684919561781395e-01  3.2364238135582493e-02  6.2403689902176034e-02  4.9432014679318792e-02  4.5523563617190933e-02  6.8853330500340371e-02  6.7501501422077795e-02  4.6196806407729427e-02  9.8204160347286773e-01  9.7730514450093553e-01  3.6217071866536811e-02  3.1068548597875507e-02  9.7959545403538506e-01  6.9520631657542700e-02  6.7948813823835746e-02  6.3193081520410838e-02  4.1190042414355379e-02  3.9025302980963211e-02  3.4963242491218391e-02  8.9908378136376144e-02  6.1494993087881006e-02  9.8942094185106422e-01  1.0655290158980146e+00  1.0148100900023076e+00  3.9725607214548021e-02  4.7585560321135638e-02  6.3649224307339755e-02  5.6233273011551725e-02  5.4478416628712827e-02  5.6780182151264687e-02  5.2068583054078972e-02  6.8662161995767301e-02  6.7418995011333929e-02  8.7958684543278398e-01  3.3693884905210969e-02  8.8310888829276479e-01  1.0397083789971491e+00  3.3416320561808245e-02  9.7526145160294198e-01  5.9245301677854884e-02  4.0847789176138807e-02  6.5614455699586224e-02  4.1572606032494734e-02  3.2833378908241596e-02  1.3148698441789586e-01  6.8630806200753444e-02  4.2784649112825819e-02  4.2620372096481188e-02  9.9507121216337768e-01  6.1960275240786039e-02  1.2657529998721195e-01  1.0338278072274096e+00  1.2643371137735571e-01  3.4086696459492263e-02  1.2068250296772542e-01  8.8792912192959994e-01  5.2252034137964302e-02  9.5662477604180562e-01  4.8359678510324328e-02  5.5924145985227380e-02  5.9437918945302363e-02  3.2719223329289768e-02  1.1028046240842199e-01  6.8224171946844700e-02  2.9727696965112609e-02  9.7639134069234779e-01  4.4883581319552598e-02  6.0304775023865102e-02  3.5728833046739912e-02  1.2804942532001584e-01  1.2942470894139824e-01  3.7835735197143179e-02  5.8694425593523086e-02  5.8340181582653722e-02  4.1226848073014820e-02  4.4849372772831450e-02  5.4854163554904467e-02  3.3936315681069064e-02  1.3411766773444206e-01  3.5551074263678775e-02  1.2212179381254175e-01  1.0297019983959403e+00  3.1778451353746642e-02  6.8898192348167284e-02  5.5778167993892930e-02  6.3755831487905201e-02  4.3997188148517732e-02  1.0991695881858342e-01  1.0629063852975851e+00  5.8199894358078645e-02  5.2046428958950980e-02  4.8402084314492028e-02  6.4339684759666269e-02  6.1251984374897116e-02  6.8734892066310657e-02  1.0386945241697694e+00  3.9485137988581463e-02  8.7178248399357083e-01  4.7575118244888526e-02  9.0345827490250352e-01  1.0146782324923049e+00  6.8634210971633622e-02  6.3740997439967750e-02  4.2096397059632799e-02  4.5291284481716883e-02  4.1872354830479172e-02  5.7828131330234539e-02  8.5779137284377815e-01  1.0700660714043828e-01  1.3038366928417230e-01  4.1162269762013245e-02  1.2082421451032702e-01  3.7029766513040227e-02  1.2264984707821838e-01  4.1240896752513530e-02  3.6103809534504649e-02  5.1688487639974960e-02  4.8996105606500050e-02  4.4936003500609348e-02  5.1346866460742470e-02  3.2109438873159077e-02  9.8778489765836519e-01  4.5471988565206505e-02  4.8575746128239346e-02  4.0822401214204752e-02  4.3329938202870982e-02  1.1715800130867422e-01  4.9167624688960354e-02  9.2013502384053514e-01  6.1961659123025058e-02  9.6096158678556998e-01  4.4507872924267514e-02  5.4070531373392489e-02  6.2685563047341922e-02  1.0351259922441653e+00  1.0055487302150512e+00  4.0968144016712817e-02  1.3575497735783257e-01  1.1309808876557813e-01  1.2167699190132193e-01  1.3762305019180107e-01  1.4023631116400323e-01  1.0019283796999370e+00  1.0026834244480984e+00  6.1405603231264316e-02  9.7409512191400394e-01  1.0683124192681601e+00  3.3515638282025362e-02  3.1695799651514985e-02  6.7100272284894832e-02  1.0076003480104223e+00  9.9880095554412573e-01  1.0245679319971983e+00  1.0340276650054472e+00  1.0538637860891029e+00  4.3001433602263633e-02  8.0073311357860244e-01  8.1603994442887440e-01  1.3289011551085744e-01  1.0773709740027104e+00  4.0687677405768043e-02  4.4155168840671041e-02  9.8339247695088605e-01  6.6988600289249897e-02  4.9153218787244810e-02  1.0238110134578793e+00  4.4215713950915544e-02  7.7173516788045501e-02  4.4700641999905380e-02  1.4074383731060203e-01  4.4257582337324346e-02  5.0972257075747568e-02  4.0980603603080354e-02  1.4761477714840834e-01  1.4258428618759919e-01  5.3190042636667746e-02  4.4829725602091891e-02  4.4163635664311064e-02  4.1895993715537212e-02  4.6220506744795713e-02  1.0039532232309305e+00  2.5387682687828358e-02  3.4904882832208828e-02  7.1651872122231827e-02  4.0634402845668084e-02  1.3890021903962751e-01  8.2678489099358121e-01  1.2101814767349701e-01  1.0333707451314769e+00  1.0838430616955601e+00  4.6299731662118884e-02  4.0485984686704279e-02  6.6750993918199428e-02  4.0565910592258635e-02  6.4949450219630750e-02  6.6925464279561392e-02  2.1198297813920040e-04  9.8208343637135675e-01  9.6271704055412244e-01  8.9941165840059412e-01  9.4460732971671568e-01  8.0576353884417662e-01  9.1347859507771556e-01  4.2753258737721331e-02  3.3694208383909650e-02  5.4877657115269818e-02  1.0698213155348211e+00  1.5796204754110704e-01  3.3431530718248795e-02  4.1715040237139796e-02  5.3238541752922398e-02  4.5674188994775267e-02  3.5690794978501972e-02  6.2361954890608140e-02  5.0628838057599289e-02  4.6909863632840422e-02  9.8197084674874380e-01  3.6324151809673730e-02  9.6623345217995549e-01  5.9086783154025012e-02  4.4588055279762617e-02  4.8032249994066523e-02  1.5675619453677681e-01  1.5046818831568429e-01  1.5162668875766513e-01  7.5948215749661874e-02  9.1451536183287441e-01  4.6749479174369980e-02  3.7739135032081955e-02  5.8885735777930263e-02  8.7415906843238550e-03  3.5479833794623258e-02  8.0323981252339738e-01  7.8795069616199243e-01  6.8693279374050426e-02  4.9330063728391209e-02  4.6864435977783982e-02  4.6674273559205691e-02  6.1395265312750705e-02  6.1201934972193950e-02  9.5845391658066625e-01  4.0290949893172216e-02  7.7962028378872339e-01  6.6879064920854575e-02  4.0413876525706348e-02  4.4201098366685843e-02  4.6292589957412755e-02  3.3672369030602126e-02  3.3237695189778663e-02  2.8929517376126521e-02  4.1026019908598416e-02  9.6648943948820898e-01  6.8474882630645689e-02  4.1621418291029992e-02  1.0521445960104112e+00  8.1930887745011194e-01  3.3584536175079352e-02  3.0777920068214479e-02  1.3403932819896039e-01  4.5221262509344107e-02  4.4053171357817028e-02  5.3422175927419935e-02  5.3385947272642800e-02  7.8039387530147442e-01  3.1805848312284259e-02  1.8453273543777470e-02  6.3754261652799599e-02  3.1502183396519147e-02  4.4325555256690116e-02  9.7706910547220338e-01  9.5861681835105739e-01  1.0001161135983136e+00  5.6944783399359315e-02  9.7656566328556249e-01  3.0560092417803636e-02  4.4132606575540773e-02  3.9463523212160220e-02  1.3436595025113321e-01  5.4342110023825323e-04  4.2762365807618663e-02  1.0902297711048694e+00  5.9188231376965009e-02  1.5187519782187289e-01  5.3488065442966658e-02  4.9282586814639311e-02  3.1174287695695888e-02  4.9495679086524101e-02  1.4220220166170755e-01  6.5383155179510030e-02  8.0559866087647525e-01  1.0569940473545552e+00  9.3536731945653195e-01  4.2872435391319214e-02  4.2683704316005558e-02  2.9049885983724620e-02  1.6015164608006324e-01  1.6030109790089428e-01  2.4847596062317685e-02  1.0070744608979709e+00  6.4962237080967836e-02  1.1908810125165434e-01  5.8676091163308082e-02  3.2728270131243714e-02  1.7009319636899084e-01  1.6770991531158980e-01  1.3453585412574043e-01  5.9558449881654950e-02  6.5920789613030245e-02  2.9323051653804472e-02  4.0286109049395419e-02  6.6758016191953248e-02  5.6780882320734305e-02  3.0771531468347608e-02  2.5330879412842140e-02  6.3796338383137918e-02  6.3184098173154957e-02  8.3003640638793585e-01  3.6746494709726622e-02  1.1160321676902564e-01  1.0579978056483970e+00  1.0114019883913781e+00  3.8749400370154674e-02  6.6764728144129940e-02  7.7389695386224944e-01  7.3307007907515223e-02  4.4262516322355228e-02  4.6786718918224994e-02  3.9224362635214748e-02  4.3521635264110181e-02  6.8753162138495971e-02  1.0237175053362038e-02  5.7307221897354987e-02  9.8407040101255405e-01  3.3036320336561897e-02  6.7585058929148900e-02  5.5525682967445110e-02  1.0303665828634163e+00  5.2293389492731247e-02  4.7379793197728955e-02  1.3305629065403055e-01  4.5602780514687309e-02  5.8524692750726033e-02  1.0613012361991181e+00  1.8555333615655134e-01  5.5230049954335926e-02  1.7330701924973604e-01  7.8555011824395463e-02  7.0649855807235068e-02  3.3930998522072375e-02  3.7612699173607766e-02  1.6222779902631802e-02  6.9110834001209584e-02  4.3402581569186312e-02  2.0564909801969223e-02  4.4984805337956082e-02  5.8344764106491247e-02  3.4888559877802622e-02  3.5121349741092336e-02  4.2327212987937284e-02  6.9579104556704158e-02  5.7024921597957537e-02  5.5298670615685969e-02  5.8350303957661213e-02  1.7707820361336765e-01  9.2295922453007218e-01  4.1271265720217130e-02  5.2796720666016511e-02  6.8824179105264713e-02  5.0117407354149157e-02  3.9653599544038076e-02  4.8462122186766723e-02  5.6014691115431357e-02  6.6621451736254930e-02  8.2430874395666875e-01  1.0218042231647317e+00  4.5784489738599513e-02  6.4353779295404770e-02  7.3343869836375430e-01  1.0513031594533928e+00  8.8778942445065401e-01  8.2883216342496668e-01  3.0018623449609445e-02  4.1645080967441447e-02  5.1570169686878387e-02  4.2557533177810927e-02  8.7857777102160028e-01  1.6344494661955597e-01  5.4595205961788795e-02  1.7204796034048347e-01  3.3207699342145271e-02  6.3662032989423925e-02  9.8288089684657942e-01  1.0116838001963555e+00  4.3729176450356282e-02  1.7699077797809527e-02  1.7028178824810800e-01  3.3847350249394392e-02  1.7207641605704819e-02  4.7342529974410484e-02  4.7908270843682689e-02  6.7608744292218623e-02  3.1303973904043776e-02  5.0071141158107360e-02  4.9062987578660816e-02  3.1864676397761783e-02  1.0384233938780725e+00  6.8283077578827581e-02  6.9169756678191099e-02  4.0052787902617348e-02  2.0590999633697704e-02  3.8675803722889479e-02  9.8690058105893474e-01  6.4447021240462574e-02  5.9332088873452440e-02  5.8028228267914574e-02  8.5658449856554852e-01  1.0660642408314545e+00  6.9599457166119996e-02  9.9163263588566042e-01  7.0025940645591700e-02  7.2301502128688022e-02  6.9680051459775863e-02  4.6974139999991026e-02  7.3334649662199036e-01  1.0567006792706108e+00  7.3117563340907976e-01  4.5728543637709201e-02  4.0469477216274787e-02  9.2245805682422433e-01  7.1487968203621843e-01  6.5694817910342013e-02  7.8704640918840871e-02  4.9555114971936445e-02  3.4831908461656583e-02  4.2854218758854624e-02  9.7965092633295958e-01  4.0592184391872788e-02  9.2382841683836292e-01  1.9693970619557036e-01  4.8955793349784296e-02  1.3020328481674412e-02  4.3968565042779080e-02  4.5400860179994687e-02  4.5359548877217631e-02  4.7423103987966113e-02  1.0128437233236747e+00  9.7963839703956224e-01  5.6087388935616225e-02  1.0225589664339683e+00  -6.7459271398469913e-03  1.9570673681081754e-02  2.1801885571449246e-02  1.3583652086341130e-02  1.4070556019251751e-02  2.6452309171723441e-02  1.9330307301907379e-02  2.5239375392379821e-02  4.6110847750426447e-02  2.3119082487275962e-02  2.1823453935230913e-02  2.5348475080909046e-02  1.2456373489025794e-02  2.5774000307646532e-02  8.0053834795524312e-04  5.4605636583707545e-03  9.7000966088866564e-03  1.7718575618977175e-02  1.4042774204611096e-02  3.9664614719788008e-02  2.3351202747423985e-02  2.3509597948335889e-02  2.3193666200783388e-02  2.2704550540017528e-02  4.9062683592655830e-02  2.6107311300710569e-02  2.4251631436314824e-02  1.7796817109638180e-02  2.2485772008508358e-02  2.3250157974226603e-02  1.2604054903463878e-02  2.0789111600386805e-02  2.6472253876386333e-02  1.5847037977022367e-02  2.0054562053038235e-02  2.0458879348116205e-02  6.2271057581009391e-02  3.9797273840327593e-02  5.7502192278043859e-02  5.0118009368332182e-02  7.3339269358145820e-01  1.0877947517011919e+00  3.5447734663916562e-02  5.0797262756927260e-02  </DataArray> 
</PointData> 
</Piece>
</UnstructuredGrid>
</VTKFile>