<?xml version="1.0"?>
<VTKFile type="UnstructuredGrid"  version="0.1"  >
<UnstructuredGrid>
<Piece  NumberOfPoints="1127" NumberOfCells="2108">
<Points>
<DataArray  type="Float64"  NumberOfComponents="3"  format="ascii">-1.011135745603424 0.1039543635956917 0  -1.000738471655976 -0.008473221581050565 0  -0.9771421314051878 -0.1196129118102201 0  -0.9402373178587522 -0.227935936290667 0  -0.8906242410502491 -0.3314116653690675 0  -0.8296744151615104 -0.4275287632045746 0  -0.758181149396098 -0.5155448712731322 0  -0.6792411204298698 -0.5932176753978941 0  -0.5981706121809011 -0.6574706816308961 0  -0.5165875204015388 -0.7098563112685488 0  -0.4315944087229046 -0.7537604041588946 0  -0.3447498217831488 -0.7888862381261391 0  -0.2554395459883693 -0.8157565539458514 0  -0.1639252989455658 -0.8345250992221144 0  -0.07216669876219041 -0.8449517866832705 0  0.01946880920864045 -0.8472306486714042 0  0.1105409291224685 -0.8412332792349753 0  0.2019604765243605 -0.8271763098386254 0  0.2920823161003568 -0.8049516905478949 0  0.3812037527015562 -0.7741322441477064 0  0.4670973002178274 -0.7352570843916834 0  0.5502658666704295 -0.6878040584094215 0  0.6308680615947604 -0.6311830704314462 0  0.7107649352513178 -0.5618541849083002 0  0.7857232579699579 -0.4811240952456068 0  0.8525425048176579 -0.3907017292268931 0  0.9093568186067424 -0.2911889261873705 0  0.9544534625591161 -0.1849359946146991 0  0.9861263722755068 -0.07573204238026902 0  1.00493886726123 0.03650719943956805 0  1.010055652595111 0.1498489016753243 0  1.002029237499315 0.2620782815673157 0  0.9812940459265667 0.3722452559531281 0  0.9472884952907974 0.4800766418913365 0  0.9010591171405835 0.5833194560602972 0  0.8442363644570521 0.6789549743792123 0  0.7758024784400489 0.7690608513182535 0  0.6978834301554507 0.8504781578893202 0  0.6114941790164418 0.9223964205172771 0  0.5171274744279108 0.9847244985563212 0  0.4160851207171722 1.036200833863298 0  0.3113115261065676 1.075749525024236 0  0.2009942670163978 1.104210536560141 0  0.08931891660166207 1.120246119322055 0  -0.02351840962165746 1.123949524016075 0  -0.1357116450256695 1.115247615485176 0  -0.2476508155399799 1.094042640637232 0  -0.3558658554423259 1.060953582097554 0  -0.4587023706495251 1.016595140452671 0  -0.5573780294802912 0.9604670601106058 0  -0.6485552508174881 0.8941863202665681 0  -0.7311232604315814 0.8187557408018178 0  -0.8049101197887742 0.7343528533360834 0  -0.8692456428731711 0.6414339603384801 0  -0.9223256486321881 0.5419306909793771 0  -0.9635626280826983 0.4375723803875512 0  -0.9923637702893342 0.3289928805424017 0  -1.008600616365502 0.2161796216334172 0  2.332711600107463 7.315407523692359e-06 0  2.323835318038892 0.203305194556662 0  2.297277458675172 0.4050601401755733 0  2.253218337280132 0.6037425074501925 0  2.192036270538512 0.7978302104248164 0  2.114143176576565 0.9858396123923103 0  2.020188340830987 1.166362441894607 0  1.910839696921091 1.337983771380767 0  1.786963341483158 1.499444126872735 0  1.649477519689806 1.649467735489676 0  1.499439715513649 1.786953795639676 0  1.33800166861582 1.910847149554707 0  1.166355088456272 2.020179473014498 0  0.9858459333957124 2.114147823715223 0  0.7978341134244056 2.192026311045964 0  0.6037498685365983 2.253221662224702 0  0.4050703016916037 2.297269443859238 0  0.2033170395239864 2.323847074117372 0  3.459151112921368e-07 2.332707078627469 0  -0.2033113543656313 2.323832751315599 0  -0.4050829314034092 2.297282986644706 0  -0.6037500828037918 2.253238952799496 0  -0.797832437672411 2.192027452851021 0  -0.9858473961040978 2.114151257627361 0  -1.166361751875479 2.020196273056435 0  -1.337988683745949 1.910839914611121 0  -1.499435636910901 1.786954518837033 0  -1.649473768392049 1.64946974483966 0  -1.786970469114216 1.49943842017842 0  -1.910849657120903 1.337993702491157 0  -2.020181346175265 1.166350159201028 0  -2.114145699738903 0.9858368982557225 0  -2.192038832258938 0.7978240970029608 0  -2.253228969623773 0.6037480255951093 0  -2.297273667427756 0.4050747685761804 0  -2.323823952357643 0.2033093226537506 0  -2.332710050822982 -4.319560829714524e-07 0  -2.323836104988722 -0.2033081324355496 0  -2.29727283948972 -0.4050708813972956 0  -2.253210796525804 -0.6037463840536151 0  -2.192030216697259 -0.7978385218260848 0  -2.114156933476444 -0.9858428696154209 0  -2.020192756061036 -1.16634940063437 0  -1.91083823219121 -1.337980544293099 0  -1.786963942503921 -1.499442231171695 0  -1.64947044733902 -1.649468538463527 0  -1.49943741673405 -1.786968102025685 0  -1.337984451246745 -1.910839681749345 0  -1.166355823433099 -2.020196988993212 0  -0.9858587285014172 -2.11415832918033 0  -0.7978322693032203 -2.192026902686298 0  -0.603752014924214 -2.253236607594971 0  -0.4050693893150121 -2.297281358515724 0  -0.2033108117507666 -2.323844515204188 0  6.979813551922943e-07 -2.332707209002766 0  0.2033087844953691 -2.32384663187141 0  0.40506889353095 -2.297269725547315 0  0.6037522509115416 -2.253235355316502 0  0.7978336911231989 -2.192025886759351 0  0.9858510356940756 -2.11416382177031 0  1.166354506580751 -2.020181826432723 0  1.337990198112208 -1.910853734739685 0  1.499441610160269 -1.786965140316626 0  1.649470927038331 -1.649467944897122 0  1.786965360775924 -1.499441839686688 0  1.910835279505596 -1.337981599170175 0  2.020176129478256 -1.166345315468674 0  2.114144690627174 -0.985837116994381 0  2.192017277117196 -0.79782801772913 0  2.253211246067027 -0.6037461707228572 0  2.297257196339388 -0.405068948003681 0  2.323819699117526 -0.2033079044363361 0  0.0008724031522125726 0.1767718509980143 0  -0.06996115153296312 -1.606068972830597 0  0.6538805558267172 -1.472459940229006 0  -0.8679236837289908 -1.367262912209465 0  1.220186853488697 -1.07478719298055 0  -1.37503742606626 -0.8854999560092375 0  1.568692619604225 -0.5103762913540492 0  -1.6456806027096 -0.2367876668392615 0  1.668836446578371 0.1953831541921339 0  -1.63549832201739 0.4029273098408409 0  1.491623442900589 0.812924973766151 0  -1.340890838742068 1.057017373882862 0  1.062343496721223 1.352240256786819 0  -0.8090671291759888 1.522051330467138 0  0.2303138127074492 1.713467229194046 0  -0.3168015273774142 1.767497635605008 0  -0.5135612978654102 0.07404963531676947 0  0.5200013306254405 0.1464425635825825 0  -0.3142631045405694 0.5466534435385706 0  0.2448402645977766 -0.2541695090364231 0  0.2591909881040411 0.58220132173744 0  -0.5556919986631844 -1.756035476027985 0  0.6113552873544355 1.444972099041649 0  -0.2370530954920744 -0.287870981399279 0  0.4117377174399379 -1.851122531336375 0  1.163024740476824 -1.50928100494106 0  -0.4087646098968811 -1.311724512201525 0  -1.29918556735164 -1.412327270902568 0  -1.76515723812317 -0.6565172155294281 0  0.2495303259996371 -1.285137944199989 0  1.711804063704689 -0.892746274200277 0  1.912528757007168 -0.2628975658470047 0  -1.714246975396589 0.8704926672795269 0  -1.933907092591036 0.06930363633176408 0  1.85663490631346 0.5665501046022489 0  0.7777598595992818 -1.074256922770117 0  0.8973101031169326 1.72657195830209 0  -0.9390822212144584 -0.9564667418049176 0  1.451272767715537 1.306893050119039 0  -1.201241472666638 1.541724032663637 0  -1.286353300100368 -0.4874309120975122 0  1.166709610009253 -0.6732677012615985 0  1.400051052676512 -0.1429962272064156 0  -0.2333637676306515 -1.952539251585258 0  -1.402732060640135 0.06412895469730813 0  0.776150233854368 -1.822408808158007 0  -1.377940987354162 0.6718969038272462 0  -0.9291206285073861 -1.739403475111329 0  1.357284188800525 0.4050380090454226 0  -0.06905576193331522 1.48610258913022 0  -0.4505357751455616 1.414440911900594 0  -0.9479583885436641 1.143410344397221 0  1.126065329659159 0.9526259784159776 0  1.474113819642445 -1.338453158626057 0  1.997555819930241 0.07339345037868113 0  -1.720158360112205 -0.9944161793096541 0  -0.07771469192035052 -1.217266392757211 0  1.906413018139815 -0.6176497816975348 0  -1.926768836939101 0.591394042642933 0  -0.04165164046783649 0.7831943763767115 0  -0.666844861552942 1.861968036424655 0  -1.993500707126507 -0.2716007718248548 0  -0.6328156180303832 0.3836353953173228 0  0.5592646758674404 1.889096406316801 0  0.5718000505866772 -0.2049435368577069 0  -0.01954419086595318 1.978802702310856 0  -0.6172978927554165 -1.066691871038218 0  1.712419644861764 1.07250219995935 0  -1.480152381714234 1.366947943652636 0  0.1049542544627319 -2.002169625698607 0  0.5930493211367293 0.468157038199425 0  -1.112766897679138 0.8324702814034534 0  0.7943086513302949 1.17702059285525 0  -0.5789259654250489 -0.2486198268709996 0  1.283695650919347 1.573030430186634 0  -0.9907137434582624 1.773875840978006 0  0.01590493527541054 -0.4813026573260183 0  0.2945705781247885 1.400220632943765 0  -1.303959373075638 0.3568246421549743 0  -1.03132405759602 -0.6777786241078997 0  -1.577261537614623 -1.269642747060498 0  1.200703289834399 -0.3866658367868511 0  1.192103187496219 0.6537905290767334 0  0.4665132881528664 -1.091942659966283 0  0.2812674988989679 2.010738389263222 0  -1.341215269557658 -0.2148162283555688 0  0.9847213539050903 -0.8858861334044779 0  0.232561460765252 -1.596496113741991 0  -1.095607348512837 -1.201755345072522 0  -0.02039984849192293 0.4627185820096129 0  0.9134932292117549 -1.340481310635623 0  1.382707415710877 0.1289370197036118 0  -0.6924168087248381 1.264244443290689 0  1.453962694899757 -0.7565146158875037 0  -1.684726953592195 1.164047480347734 0  -0.2925135721687674 2.047746030181466 0  -0.007404447389241212 -0.107724996464758 0  -0.2428892729546069 0.03232515980594663 0  -0.2458128148326033 0.295953042054807 0  1.695061307434264 -0.08105890817080035 0  -0.7654696848669038 0.08097236566273193 0  0.7634376034441186 0.1979205318594237 0  0.2262834953501248 0.8361660231440357 0  1.755285546079776 0.8081860858644125 0  -2.029346578375186 0.3355564970604076 0  -0.3153757259920746 0.8032995959568483 0  -0.5569796156434588 0.6384964128571778 0  2.026142762423021 0.3516606420020914 0  0.39902318015
[...]
<PointData  Scalars="f_2929-1"> 
<DataArray  type="Float64"  Name="f_2929-1"  format="ascii">3.2800362195898963e-01  3.3050327173888761e-01  3.3862593314410200e-01  3.3044567444578021e-01  3.2161185923052188e-01  3.3710161384277210e-01  3.5066424156141945e-01  3.7366195159987303e-01  4.2996608775153672e-01  4.3608245638256998e-01  4.1614757790122736e-01  4.3109430923112763e-01  4.2497986993204229e-01  4.3574056356047791e-01  4.0764776842133471e-01  4.3566748442477049e-01  4.1447128803936328e-01  4.1953849774172330e-01  4.3057882182339696e-01  4.3572922371376843e-01  4.4059901495710335e-01  4.3023241641360932e-01  4.3345073974641596e-01  3.4374098297979633e-01  3.3523139587912687e-01  3.3702786405861512e-01  3.1500456183933295e-01  3.2386300812331698e-01  3.2554386676377001e-01  3.3471634244810444e-01  3.4424597087364622e-01  3.3388125042881084e-01  3.5290152438138644e-01  3.3693696749422392e-01  3.5211104196805099e-01  3.4615010324512502e-01  3.5531196705848417e-01  3.6365430313886332e-01  3.6799814402621334e-01  3.6502791845901950e-01  3.5957958397753681e-01  3.6460772150101334e-01  3.7301318518080012e-01  3.6968826256475351e-01  3.7287292373221997e-01  3.6592578133875286e-01  3.7108540522434946e-01  3.7132145120681043e-01  3.7199105365894158e-01  3.6436474612059189e-01  3.5802848853073943e-01  3.5512275895504375e-01  3.6192662732309505e-01  3.5456098611722237e-01  3.4579639085842373e-01  3.5028584446911221e-01  3.2553411506183977e-01  3.5101757525342442e-01  -5.1431466132432026e-02  -5.0837293700987711e-02  -3.9246391053170356e-02  -8.3982225461455895e-02  -3.5700876317067663e-02  -9.3261715488234503e-02  -2.9486628255093923e-02  -7.3338924097200442e-02  -1.9916141134305267e-02  -6.1858515917321333e-02  -6.1239734822620080e-02  -9.4802692587064724e-03  -6.6361083786302871e-02  -6.2743726451957943e-02  -5.9377279210145885e-02  -5.7048577540346916e-02  -5.2477871587504867e-02  5.5092083190163522e-03  -5.5920749584400672e-02  -4.8479432650193499e-02  1.7675497549490592e-03  4.7295395327156516e-03  -5.7588073326539285e-02  -5.3346344000523557e-02  -1.7327659034672774e-03  -5.8041909684275521e-02  -6.6188386384476702e-02  -6.7967716922950866e-02  -1.8013468908466470e-02  -2.3919770354574505e-02  -7.7324995490210491e-02  -8.8688983892968781e-02  -3.8214986035240699e-02  -4.5287001245736237e-02  -4.1068752403187442e-02  -8.8782600100088940e-02  -5.4288211770925812e-02  -4.6441857886039183e-02  -4.6275534285683949e-02  -1.0492815463943297e-01  -5.0479372725122311e-02  -4.8439206785789772e-02  -3.8182699737586416e-02  -8.5266496689758345e-02  -2.3538513747024890e-02  -7.9907893138953981e-02  -2.4856339078036221e-02  -7.0276783750565272e-02  -1.4281325226708018e-02  -1.4860439927093357e-02  -6.2853447487290881e-02  -6.2599713996955852e-03  -9.4593662771334588e-03  -6.4829070383158084e-03  -5.9327044677373077e-02  4.6269611856673016e-03  -5.5013273270328490e-02  -8.1323749373142153e-03  -6.4484009107410256e-02  -2.6324361818790697e-03  -6.5396220299731217e-02  -1.6189700570752509e-02  -2.3196050347547972e-02  -8.0458770618783398e-02  -2.0108971549681057e-02  -9.0846690176318204e-02  -9.9849596837760124e-02  -9.3308787990190295e-02  -1.0296343696479897e-01  -1.0349209566555435e-01  -1.0327455620716258e-01  -1.0195532849313825e-01  7.9556508122871983e-01  6.0168055253170503e-02  5.5159681417146895e-02  4.9809342415311840e-02  3.7369529166953193e-02  2.9971644567362021e-02  2.2990264197305370e-02  2.1655129985117795e-02  2.5435183063110080e-02  2.9354501991664124e-02  3.8011719531419068e-02  4.5453860851036344e-02  5.4141077933458868e-02  6.0699586676014855e-02  6.7636407118341776e-02  6.7072629322446342e-02  7.8425652997871442e-01  7.8189080375882447e-01  7.7240708646316991e-01  8.3039523550403616e-01  7.7183946915333124e-01  5.5910988327795175e-02  6.2839867201106334e-02  8.3348958481665503e-01  5.7169719072705294e-02  4.4600920001831357e-02  5.4779126000742022e-02  4.0023839781638676e-02  2.2495064922055785e-02  5.7144205036041298e-02  2.5374783083096795e-02  2.0328747708245339e-02  3.6066547395750444e-02  2.2108990625138544e-02  2.8696405448521159e-02  4.7857285122635651e-02  5.8617637081125190e-02  4.0194429033076545e-02  4.5523547907225688e-02  5.2889200535038552e-02  1.7164665871827745e-02  2.0462949260964251e-02  1.7938568143712471e-02  5.6817781101481370e-02  1.7129487407456939e-02  5.1929014624088603e-02  3.5820618494630925e-02  4.9162351111948999e-02  2.4845030412173990e-02  6.4417039205229412e-02  6.3819516671764609e-02  5.1556023768053204e-02  4.5220833662011600e-02  3.4732344479433269e-02  2.0953314170112706e-02  2.5335291391785059e-02  5.7883941718683551e-02  1.9734395875840104e-02  2.7809535491039445e-02  7.6516522707563839e-01  6.1969115469014860e-02  1.8334760768597611e-02  7.6320835685694122e-01  6.2901572626716099e-02  7.9100968095495860e-01  6.5772624119036061e-02  4.6264953305141757e-02  3.6871947282256110e-02  4.5401763710239025e-02  5.6422864689781187e-02  7.6509299189276214e-01  4.6515745255587423e-02  6.3499494410712981e-02  7.8329505894286300e-01  4.9701220155267518e-02  5.6100927174703746e-02  8.5600456763001764e-01  6.7977938205578833e-02  3.1441151371167736e-02  2.1552582991613188e-02  3.0171932063635581e-02  2.0763535689377523e-02  4.0272975120872107e-02  5.6536258141310497e-02  6.3958829333678954e-02  1.6226764399990025e-02  3.4430545310951487e-02  5.9727294395599463e-02  4.2530960385692158e-02  7.7889528793638629e-01  4.9171705323224416e-02  2.0553641744585897e-02  6.1104371670208220e-02  2.6696218063403838e-02  3.8287541629796397e-02  6.2301029119750870e-02  8.1854577170855736e-01  8.0260550607025005e-01  7.8506911726363238e-01  2.2834129370600729e-02  7.4892217514142612e-01  7.4771083078971079e-01  7.5344954330231384e-01  3.3709655561833973e-02  2.1378074568598117e-02  7.4766183825741273e-01  7.4314443352648796e-01  2.1447854568607441e-02  8.5452869152214672e-01  3.1792996403573859e-02  7.8413273893813484e-01  8.0281805906319847e-01  7.4137818656586285e-01  2.3301771565364827e-02  4.5944091912197844e-02  2.9514800892954565e-02  5.8886647521406980e-02  6.5383533250210776e-02  4.9947061241718063e-02  5.3612851611926839e-02  5.1481056244348164e-02  4.1923856471979236e-02  8.5679728836757052e-01  6.5035179230555351e-02  5.0650743109324319e-02  6.8162676802506150e-02  2.4843525764590677e-02  5.1466584600082334e-02  1.5992674879753799e-02  4.2744962452416262e-02  2.4430936394611517e-02  3.6477907298436099e-02  8.3402943223285175e-01  3.9981215537114929e-02  5.7282450382304770e-02  4.8631752597606513e-02  5.0258218879290183e-02  1.8336850245226657e-02  3.2955799778219969e-02  5.5934744617805045e-02  7.6967649893176082e-01  2.1592994290076498e-02  6.5371388399810451e-02  8.2039264359155165e-02  5.8942390253710265e-02  2.5965888779442083e-02  2.1758997277179191e-02  5.7321880986488105e-02  5.3636522294470711e-02  5.8584979125653844e-02  5.8923671231113327e-02  5.1383960129277623e-02  6.6704185902863353e-02  2.0244703205740473e-02  5.6434665480697546e-02  5.2280316472675607e-02  5.2703450601632264e-02  3.4713031509858668e-02  2.6216548701143930e-02  2.9445723350059114e-02  1.4826914559766671e-02  6.3073672541846926e-02  5.8047514251106332e-02  3.7683970288385646e-02  4.7692409616328334e-02  6.4668681958398727e-02  3.9607203107159095e-02  4.3389055221661997e-02  4.2949763408073813e-02  1.5983159584041715e-02  7.0905896609234395e-02  8.0196576083783333e-02  8.0916522114219935e-01  8.5983104201293459e-01  3.5785336726133751e-02  1.4875479534668024e-02  2.4234716965123259e-02  2.8815106081103058e-02  4.2781415074708826e-02  5.1363212202993315e-02  6.2606714020618778e-02  4.6261059378706386e-02  1.3723118827080107e-02  5.9750973975046640e-02  5.6122356147569143e-02  3.3778273681944540e-02  3.6800908909299233e-02  2.9882365196451054e-02  5.5744760899423276e-02  4.0185669260142672e-02  3.2044482881250329e-02  3.3131603602353052e-02  6.1582038330608414e-02  5.6236641582643944e-02  2.1370685954621240e-02  3.1128549767047133e-02  5.1280241313147908e-02  3.0990359799607736e-02  4.4307781897251236e-02  6.4104079098364242e-02  2.4568677864985500e-02  2.1948007603738207e-02  3.7091624889419035e-02  5.5646904982926688e-02  3.6564051914118531e-02  2.1995942040038508e-02  1.7362602461101929e-02  7.7643084937868678e-01  2.2245283143674771e-02  2.6844852383720013e-02  4.9200617114675202e-02  9.0409503967684213e-02  8.7292311279541110e-02  2.6911861576812513e-02  1.9866292107134226e-02  5.5162542404086017e-02  3.5177178278384000e-02  2.5313475983527844e-02  5.7304001107055948e-02  4.0812695325890158e-02  7.4163653972572921e-02  2.3624071527015740e-02  4.3572444099143064e-02  6.5096141232053747e-02  8.3136050489473298e-02  5.0480866833104460e-02  7.6996996369849013e-01  8.3197267905225747e-02  5.0653935501317263e-02  7.2802957582608807e-01  7.9663783622430495e-01  5.0134965778408591e-02  7.7602511163880017e-01  5.0686709290595773e-02  9.6426494024446349e-02  4.3076618587210923e-02  5.7142803168183216e-02  5.5830217470441923e-02  6.8390600000129323e-02  1.9259599514216880e-02  7.0007278537298867e-01  1.9701756460594768e-02  3.0856527539485847e-02  2.2012548695671201e-02  2.5304547663938578e-02  3.2503813876778691e-02  5.9424998266054532e-02  4.1212654609382664e-02  7.2684533299130760e-01  8.3629806427694209e-01  1.4638733465439415e-02  4.4448716046291734e-02  7.1609519115269682e-01  7.2199909696107600e-01  6.2988264073521566e-02  7.1391454017085410e-01  7.9792275273072599e-01  6.8187722903192693e-02  6.5896115487688506e-02  6.0834349347420637e-02  1.8644528628816166e-02  7.1670340353770035e-01  8.8010845237089919e-01  4.6165193854141619e-02  5.9113308937397871e-02  7.6681445267163439e-01  7.6931781251966980e-01  1.1494952955341037e-01  6.2544817440258041e-02  4.2533274135272921e-02  6.6933486767138173e-02  6.7590755427805890e-02  5.6781070283914027e-02  6.8815013674154810e-02  2.3217728327273080e-02  2.7416813496748620e-02  5.2986070906687464e-02  3.8495211113501883e-02  3.9815583705694942e-02  5.2776505466113614e-02  6.8651977453587876e-01  4.2464125494935147e-02  2.7093674254961061e-02  4.6884216704564941e-02  4.9679765568242364e-02  7.7657936989056098e-01  5.0153899212791848e-02  2.8335269157231890e-02  8.2316554895828975e-01  5.4057030742908699e-02  2.8286815888041227e-02  3.7627260238473709e-02  1.3517892401433069e-02  2.0894477070947371e-02  2.3748377615023776e-02  8.8279501543874794e-01  1.7435501917643190e-02  1.0251855633597031e-02  7.7152563970662758e-01  7.6173271284651356e-01  3.5610836403958332e-02  8.1950637165614081e-03  4.4582170492253090e-02  1.8175812567957608e-02  2.3695692167604348e-02  3.8241371695571159e-02  1.5403082962654132e-02  3.0925798661933242e-02  5.8880271182057478e-02  1.0860353401721631e-01  5.7455574909592085e-02  5.6275667081914761e-02  5.2935508561565203e-02  3.0436966617137618e-02  4.5903360508110148e-02  6.8897900276821811e-01  7.8961273245018315e-01  5.4227302780490212e-02  4.4409756121436696e-02  1.2347380055167058e-02  2.1352874749700823e-02  6.9138917070296835e-01  8.4187217007174131e-01  2.2073275057102246e-02  2.1188847294822701e-02  7.0905025664361321e-01  8.4908986957095522e-01  5.8901086108688570e-02  7.7008156832058194e-01  3.6245422032762389e-02  5.8666897876178306e-02  1.3125020427768333e-01  3.8908502260220267e-02  2.9616015222598300e-02  4.9212646528030680e-02  4.6922676692205512e-02  5.4466279991155150e-02  8.1652584976724996e-01  2.3771260650985285e-02  2.2368267026037530e-02  5.0461090809050167e-02  3.4442227989295304e-02  5.7206540057976527e-02  4.1085268909147141e-02  3.8449094429958856e-02  5.0557174468363233e-02  2.7662980420790028e-02  1.3085045736630427e-01  7.8570599775763372e-01  7.7842724207265779e-01  7.8601007062364880e-01  4.5843163950633814e-02  6.9107871940104953e-02  3.0987035495162098e-02  5.8966707017317918e-02  5.4423271877929225e-02  8.1205828847396744e-01  8.1648349357457262e-01  8.0534283796370998e-01  8.0589667349366456e-01  7.9402874131696310e-01  7.8988187338108429e-01  9.0113662177631587e-02  6.6727404432201362e-02  6.3772430499306240e-02  8.5018749028430562e-01  6.1588762052240856e-02  5.5016259708079288e-02  2.8743057792848709e-02  8.6050095164262250e-02  2.3069312077572037e-02  4.3569039309514987e-02  3.7798828259287265e-02  2.2152028936379676e-02  3.5900854184999255e-02  1.3884237695106080e-01  1.0149947629103359e-01  7.2811072636032495e-02  2.8054351472619133e-02  7.6833998016156813e-01  5.7218510097133163e-02  5.0477577895860395e-02  3.0418924456261976e-02  5.9713397379673759e-02  7.9795694988818289e-01  9.8316352745070890e-03  1.2427544830165532e-02  3.5473885300967241e-02  7.7175082044587451e-01  5.8587125404981809e-02  6.0214032619150079e-02  7.7866841073224180e-01  6.8085065608675432e-01  1.0360760671854918e-01  4.6183199626575418e-02  4.4353525123627571e-02  3.2437359693019634e-02  2.7093499611677434e-02  5.2733206211982013e-02  4.2964355102410284e-02  6.0187107153292771e-02  6.5652389247947890e-02  6.7910498748619319e-02  1.9869144325392735e-02  4.3268396203142559e-02  1.3106627769751475e-01  6.6184741324632479e-01  4.7916667639617813e-02  1.5368783977944328e-02  7.9004649864333709e-01  3.8302710933678173e-02  5.9545935935023088e-02  5.7548368269752841e-02  2.7892404765426405e-02  4.3077417112424993e-02  4.7546059011947160e-02  5.2353953077113914e-02  4.6778735333904906e-02  3.7185551032925111e-02  6.6876000502377894e-02  7.9157605588424232e-02  4.7785611031667174e-02  1.6806869600387391e-02  4.6010761314075534e-02  6.7939004063898648e-02  3.3968739481405566e-02  2.1081339113951474e-02  5.0802657472320982e-02  6.3598877117099245e-02  2.2729622619339914e-02  1.7625539053692095e-02  1.5373498889630242e-02  3.8694667310712021e-02  6.6675975246951347e-02  4.5353006758076429e-02  3.6453316020198342e-02  2.7753915862557151e-02  7.6332750052247111e-01  4.8886253841047521e-02  1.9437399283776444e-02  2.8570400241678246e-02  4.6437695244240872e-02  4.2175130218094742e-02  4.0957656209474599e-02  1.1977811662315605e-02  6.5765173573852220e-01  2.1386278354905044e-02  4.2779663084302678e-02  8.1895455753313096e-01  5.4051702784484686e-02  7.9495074512801500e-01  7.9664185263598664e-01  5.3153293948346066e-02  4.0443043782261594e-02  7.7458074996551030e-01  4.8763461095985734e-02  7.6276976638780603e-01  6.3986555870287135e-02  2.0170521682700365e-02  2.3608886754780855e-02  1.8578418879904430e-02  2.1515118882723176e-02  5.5546802365917171e-02  2.4482904037070097e-02  2.6630628502012522e-02  2.5670602452384072e-02  6.5716280786145762e-02  6.4309958230665085e-02  2.5573952533638099e-02  2.3260743817608672e-02  5.7819524945806812e-02  4.6277999450033552e-02  6.4063301094780811e-01  6.5679138393363978e-02  2.1891277832891329e-02  6.1399457456396439e-02  4.1346717252630893e-02  3.4570637718446845e-02  8.3623586557120280e-02  4.7908430597745910e-02  6.1897479271188605e-01  1.7864714940349084e-02  5.3536695086886334e-02  5.9442977194967585e-02  7.6778447077416467e-01  3.4310671419825044e-02  7.5473382437808947e-02  6.1152520074220874e-02  2.3717315252115175e-02  7.3631989962135236e-01  7.7725700201082604e-01  -6.0886205791705651e-04  3.8096627935371837e-02  7.7515713979005516e-02  5.5016136154270708e-02  9.1674729634014795e-02  5.2175462791210166e-02  6.3214283235219326e-01  1.1898699032166197e-02  5.6768976822254853e-02  2.5057930698195608e-02  6.0954208236674534e-01  1.1133610035562723e-01  5.5324387858944370e-02  1.6802053717131876e-02  3.5047704826543603e-02  1.9982734377312187e-02  7.6176480798162738e-01  7.6216755806471692e-01  3.2046916996998458e-02  2.2076410855575570e-02  6.2226697812704845e-01  7.7532345981417805e-01  7.6249633804636729e-01  7.4190630789395451e-01  4.5853719146062948e-02  1.3263463716702692e-01  2.6145850353398767e-02  4.9033036977679509e-02  6.1369411603611557e-01  7.7314796430348764e-01  2.4628657449939841e-02  1.9775725953621735e-02  3.1248885304212094e-02  3.5717857016262518e-02  5.4782233797956929e-02  1.2105479110362088e-02  2.1598511521216088e-02  3.9035765631930668e-02  4.8939273850845601e-02  5.5910042212067676e-02  6.5542887300178640e-02  1.1915979490927017e-01  3.4358698995259222e-02  6.8945041594339201e-02  2.6984506013770199e-02  2.2070563543762984e-02  5.6945037286758517e-02  7.5530588982076774e-01  2.1909274569073697e-02  2.1984889075049512e-02  2.3667874431937408e-02  1.0355855159148002e-01  1.9284130399219345e-02  2.3569296267334335e-02  5.4049165488315246e-02  8.4300916309975693e-01  7.6793331403885956e-01  4.1532544874247922e-02  8.2884859181791770e-01  7.8773118988548441e-01  2.9013493714502129e-02  4.7230976707949353e-02  1.6714940714361717e-02  2.9220820004029830e-02  1.9603258025360250e-02  5.4267389429351429e-02  2.7185578322372062e-02  2.8222064353625072e-02  2.9998451903207546e-02  5.2252509460950995e-02  7.6669787530730349e-01  2.4678309408284086e-02  -3.8714242633481923e-03  1.0509921539789071e-02  4.5898344646979040e-02  1.4638101244551735e-01  2.4917975376379832e-02  5.5549686950673638e-02  -2.3158130427834496e-02  2.7139867502047596e-02  3.4170837379393720e-02  2.6389597474625104e-02  5.7712450429580953e-02  5.8326595364025249e-02  1.5895887357702976e-02  5.5003821475933710e-02  5.9451429079461653e-02  1.4266821600384821e-01  3.4205903571617936e-02  4.0129821887230112e-02  4.9284048065990314e-02  5.4010882389531251e-02  8.2452813456535490e-01  5.1759972382980107e-02  1.5140325165942384e-01  4.4134610891991957e-02  1.9295732580621394e-02  1.4146779226936093e-01  5.3493924919681503e-02  2.0684238387928409e-02  7.2275324197776813e-01  4.3942707635918565e-02  2.2415237904037801e-02  6.0136760539651379e-01  5.8662798896117294e-02  6.1227498786949573e-02  1.3679090559583643e-01  1.4431852980399745e-01  7.5888709059549020e-01  2.1145059390884378e-02  7.7403236019525568e-01  8.0401404290963341e-01  4.8383001421366312e-02  6.2724530230872821e-02  1.9108626396130882e-02  6.3957668699078429e-02  6.4955941737859471e-02  1.9333792374372268e-02  7.8200941403375634e-01  1.5557348659160175e-01  7.3243469475913225e-01  8.5235420050843202e-01  7.8027363400353822e-01  4.8464066708497934e-02  1.0219391673333593e-01  2.5433681430212449e-02  6.7462385860254562e-02  6.8300476674351199e-02  3.8543489508187881e-02  3.3760196021842472e-02  6.4067175808993640e-02  6.6747084585643740e-02  5.5420402202201034e-02  7.7895578844028002e-01  4.8464329835199556e-02  5.1406317326242561e-02  4.8209785155356018e-02  2.5688838264393669e-02  4.7307946211585128e-02  3.4815180579257178e-02  7.2931362388052604e-02  3.0675414262105950e-02  4.7672816513291416e-02  5.8486895794634883e-02  5.2544107837188485e-02  4.4483532834480560e-02  5.0923063347930932e-02  1.5684359550846755e-01  4.4144156881868554e-02  5.0888502990084357e-02  1.3611077298647922e-02  3.6437387957352733e-02  5.8442441330895767e-02  1.1036178548977147e-02  1.0412904482545808e-02  1.9917742590617463e-02  1.8895443194734400e-02  5.8980185608534040e-02  5.9980973599386984e-02  5.4764157527345154e-02  6.2112021034269727e-01  5.4043943401326851e-02  4.8058150015352935e-02  1.6646706078340418e-02  1.7066630722028991e-02  6.2021579595857534e-01  8.5168515502677711e-01  8.3481498987539460e-01  2.4286927887401111e-02  2.2205039853373174e-02  1.6761184667120354e-02  6.0613697772901549e-02  4.8692508263794634e-02  1.7933828942082418e-02  1.7338146370335230e-02  5.5074044809225904e-02  1.2984309173370165e-01  5.1550750574154869e-02  4.5760205818794239e-02  1.5487603643578288e-01  1.3008316315785223e-01  4.4352273426280314e-02  2.1775804584073341e-02  -8.6255414035015469e-03  6.0367099961434301e-01  1.4891649128075687e-01  1.1998992756881095e-01  5.9329939992588829e-02  1.0973999190640582e-01  3.4043512166756253e-02  5.6779877890303018e-02  4.9507005323052931e-02  5.6740191121171335e-01  4.1350181806117076e-02  2.8247662647835788e-02  3.2609862413417220e-02  2.5047381008833573e-02  2.8812974087375202e-02  5.9234630449344669e-02  5.8045676254290302e-02  1.4599011310302164e-02  2.2181897118835194e-02  6.0805382093174543e-01  5.7459388226373476e-02  1.1840757562400593e-02  6.123735159