<?xml version="1.0"?>
<VTKFile type="UnstructuredGrid"  version="0.1"  >
<UnstructuredGrid>
<Piece  NumberOfPoints="1173" NumberOfCells="2198">
<Points>
<DataArray  type="Float64"  NumberOfComponents="3"  format="ascii">-1.010293109948927 0.1702402149192498 0  -1.007652937815192 0.06178413554074734 0  -0.9929108423551383 -0.04576449786775762 0  -0.9662425743451682 -0.1510316692032484 0  -0.9279100669347878 -0.2527234930984154 0  -0.8784036902144708 -0.349537951238546 0  -0.8184336123548211 -0.4401248018178495 0  -0.7488138058217964 -0.5234007655232702 0  -0.6708789541291459 -0.5983787320050336 0  -0.5857325021535169 -0.6637714133229565 0  -0.4945459348199074 -0.7193679116600841 0  -0.3982447676599959 -0.7651857123019273 0  -0.2979079649342126 -0.8009301763202393 0  -0.1945161333106916 -0.8261455573647676 0  -0.08924288869142373 -0.8408442930184292 0  0.01688095950626538 -0.8451049472940834 0  0.122809606043627 -0.8371697683731026 0  0.2274299081533455 -0.8188012513994443 0  0.329873569172923 -0.7897476207783208 0  0.4289187809696622 -0.7504851726482633 0  0.5234567239296147 -0.7011703081403424 0  0.6126234319649864 -0.642242113430067 0  0.6953649093194539 -0.5736242257592191 0  0.7706367055117886 -0.4959879786987557 0  0.8370611994383007 -0.4102579440457285 0  0.8936738708575479 -0.3175136998562711 0  0.939595310274482 -0.2189037660424715 0  0.9742479875992825 -0.1160250400429342 0  0.9973150410025199 -0.009924178684484239 0  1.008117145145134 0.0980744398876509 0  1.006693244202095 0.2065372626270119 0  0.9932659834939892 0.3141436627293711 0  0.967798931286222 0.4195149886145008 0  0.930559562563078 0.5214184624214721 0  0.8823921121670721 0.6185277483446795 0  0.8236878910516027 0.7096722049457221 0  0.7554392610860595 0.7939994887365494 0  0.6782982608982431 0.8702650390575017 0  0.5934634867126041 0.9378481540804124 0  0.5018131112758701 0.9960038835556154 0  0.4044720784019609 1.044065084476109 0  0.3025903833452117 1.081499827233626 0  0.1972719826564537 1.108251462434416 0  0.089766733154823 1.123759477353053 0  -0.01881922526476226 1.127341412958558 0  -0.1271256768675765 1.119469330508355 0  -0.2340116711637002 1.100168316577214 0  -0.3382881157850985 1.069867329969959 0  -0.4386702796256263 1.028786305986753 0  -0.5341649092292122 0.9772603280009776 0  -0.6236640606655074 0.9159032933834015 0  -0.7060565882551845 0.8453855592838457 0  -0.7802429173382486 0.7663182428927736 0  -0.8454512054863484 0.67971687363547 0  -0.9007918739705942 0.5864488130988857 0  -0.9455380114621527 0.4876523292415995 0  -0.9789678168728484 0.3845629700571255 0  -1.000731502763632 0.2782836408511012 0  -2.337344437252761 0.1006509682027366 0  -2.337344437252761 -0.100650968202736 0  -2.320039556804207 -0.3012077200543108 0  -2.285557915187494 -0.4995344353299123 0  -2.234154802413087 -0.694162772418052 0  -2.166210789143603 -0.8836517712053923 0  -2.082228909081767 -1.066598521441283 0  -1.982830934684887 -1.241648549394407 0  -1.868752773779103 -1.407505845902419 0  -1.740839021155325 -1.562942461570338 0  -1.600036705484896 -1.706807598078242 0  -1.447388277850643 -1.83803612828941 0  -1.284023893803786 -1.955656482078982 0  -1.111153046087641 -2.058797839499239 0  -0.9300556099765029 -2.146696578025831 0  -0.7420723675269277 -2.218701926151766 0  -0.5485950808964601 -2.274280781471976 0  -0.3510561882235659 -2.313021657587001 0  -0.1509181983568175 -2.334637730604324 0  0.05033713704893303 -2.338968962682125 0  0.2512197939033879 -2.325983286893463 0  0.4502425072978524 -2.29577684463859 0  0.6459317826942804 -2.248573273847656 0  0.8368388051632841 -2.184722053243722 0  1.021550165902993 -2.104695914924563 0  1.198698326623316 -2.00908734441961 0  1.36697174432096 -1.898604194134388 0  1.525124581484984 -1.774064442658955 0  1.671985929841835 -1.63639013874061 0  1.806468479350541 -1.486600574757564 0  1.927576568265847 -1.325804740234789 0  2.034413554669414 -1.155193111273581 0  2.126188454892883 -0.9760288366830111 0  2.202221799684212 -0.7896383860680835 0  2.261950664760293 -0.5974017291128703 0  2.304932838501393 -0.4007421187677799 0  2.330850095931273 -0.2011155539826635 0  2.339510554743572 0 0  2.330850095931273 0.2011155539826629 0  2.304932838501393 0.4007421187677793 0  2.261950664760293 0.5974017291128698 0  2.202221799684212 0.789638386068083 0  2.126188454892883 0.9760288366830107 0  2.034413554669414 1.155193111273581 0  1.927576568265847 1.325804740234789 0  1.806468479350542 1.486600574757563 0  1.671985929841835 1.63639013874061 0  1.525124581484985 1.774064442658955 0  1.366971744320961 1.898604194134387 0  1.198698326623316 2.00908734441961 0  1.021550165902995 2.104695914924562 0  0.8368388051632841 2.184722053243722 0  0.645931782694281 2.248573273847656 0  0.4502425072978545 2.295776844638589 0  0.251219793903388 2.325983286893463 0  0.05033713704893308 2.338968962682125 0  -0.1509181983568175 2.334637730604324 0  -0.3510561882235659 2.313021657587001 0  -0.5485950808964607 2.274280781471976 0  -0.7420723675269271 2.218701926151766 0  -0.9300556099765029 2.146696578025831 0  -1.111153046087639 2.05879783949924 0  -1.284023893803787 1.955656482078981 0  -1.447388277850644 1.83803612828941 0  -1.600036705484896 1.706807598078242 0  -1.740839021155325 1.562942461570338 0  -1.868752773779102 1.407505845902421 0  -1.982830934684886 1.241648549394408 0  -2.082228909081767 1.066598521441282 0  -2.166210789143602 0.8836517712053937 0  -2.234154802413087 0.6941627724180526 0  -2.285557915187494 0.4995344353299128 0  -2.320039556804207 0.3012077200543113 0  -0.000204158105418073 0.1413225794093893 0  0.1028139990974094 -1.590487059483821 0  -0.6999727933227857 -1.442151279337854 0  0.8103865102540012 -1.381879230548784 0  -1.343412579616097 -0.9240114221498568 0  1.383652385733127 -0.8664429970095652 0  -1.636658960635165 -0.284554139118276 0  1.649066280106945 -0.2140961316770245 0  -1.635722730550718 0.4320092399909962 0  1.617183011423118 0.5024666336926833 0  1.276985874643324 1.146321505538275 0  -1.32426571494348 1.089780527847616 0  -0.7773432572373586 1.542204512543075 0  0.7237583704916711 1.568127719505135 0  0.1120087367831132 1.732725581794433 0  -0.5019363585245743 0.07631991414428582 0  0.5050722105910344 0.1457112191825815 0  -0.2993279363843992 0.5387596431877064 0  0.2480030922927654 -0.2883915109430036 0  0.2487307863567044 0.5698812624620204 0  -0.3525264622885862 -1.808278340491651 0  -1.199073191353263 -1.403357155763878 0  -0.371140122917341 1.817056298066469 0  1.291132065458928 -1.340052299442899 0  0.5989230805045225 -1.79070377833994 0  -0.2450925110316656 -0.3191727303119468 0  -0.8879450011055815 -1.016989935667632 0  -1.749879649961472 -0.8032839211203479 0  1.775841840335771 -0.645842636699496 0  -0.2027348168748691 -1.26934435146781 0  0.9412734558575274 -0.9509411173478665 0  0.398091690361867 -1.225422005684663 0  -1.936450886166195 2.775557561562891e-16 0  1.891202307903761 0.1556683475918635 0  -1.769473937118149 0.8122786973148824 0  1.658215703965878 0.9359506541732845 0  1.296711134445125 -0.4509034818992539 0  -1.272346677878879 -0.4899170835939575 0  -1.198641867782554 1.494708916476428 0  1.142707244109304 1.543906793666344 0  -0.0005259959892378874 -1.959322338449158 0  -0.4127158964908917 1.44091162273109 0  0.4599581953070769 1.906823667026005 0  -0.7328361401333996 -1.821260755066194 0  1.076013912550649 -1.651234456699824 0  1.422505853669416 0.1348138241590132 0  -0.5349948395876805 -1.115077494774691 0  -1.40451549223582 0.1063833908534992 0  1.280059530916255 0.7361421989567829 0  -1.406736017959593 0.7262068665900454 0  -1.534918745646181 -1.243081704405721 0  1.605384617815768 -1.155600382498611 0  -0.9516550905830203 1.19613364244932 0  0.8859485482624156 1.207150321691354 0  -1.92774776157271 -0.4927405295344949 0  1.963065988018644 -0.3563811392877639 0  0.3648206426362911 1.453211353215488 0  -0.7194880497028607 1.878356261125403 0  -1.660876659452646 1.133935719997034 0  -0.08975535044633065 2.00297297802757 0  -1.973068760240995 0.3461655802661385 0  -1.023733163695358 -0.7123109482519078 0  -0.03784553068719336 0.7752751672956071 0  1.885297358271056 0.6957715340238432 0  0.575648811543827 -0.1892507850414531 0  -0.612909364328915 0.4005446596614118 0  0.5739933500950785 0.4843719170032608 0  -1.113839496763797 0.8509087330775631 0  1.514130840594545 1.359401618633211 0  0.7721705368806289 1.877915531817973 0  -0.9640954980736502 -1.610234762099921 0  0.3304434762144238 -1.986090669265911 0  -1.303646409821779 0.4166604710625244 0  0.04552538934809457 1.430264595306449 0  1.289970246981845 0.4209539466050477 0  -1.014659872435657 1.755002869292415 0  1.03955524922155 0.935290952123538 0  1.048898713297319 -0.6510982498883309 0  -1.276887551648756 -0.1781258445758102 0  0.6790045702412746 -1.10662925341408 0  -0.5909105321992693 -0.224356502390447 0  0.01482260325084504 -0.5179179871221313 0  0.09072732042602448 -1.152296842362676 0  0.4121522914638993 -1.538742836787965 0  1.282848352413066 -0.1415590252821539 0  -0.6539569677121015 1.25637055934839 0  -1.460796471277396 1.354088235873206 0  0.598972292462507 1.274242731150929 0  1.819698302113855 -0.9438860974845605 0  -1.55930746473286 -0.5731582457157312 0  -0.1543769312263781 1.632742005896317 0  -0.1900098732840637 -1.563164715823615 0  0.1937196859399816 2.004171438919967 0  -0.01873090625254031 0.4386623271668767 0  -1.658394524932696 -0.007253721269092726 0  1.876351172470076 0.4255898527183789 0  -1.229171028151966 -1.674429271436673 0  0.8314625431290616 -1.919130186351874 0  -0.4485457579932659 -1.363827744128779 0  1.194284803392029 -1.075291388777986 0  -0.008156258479042194 -0.1498112025078842 0  -0.2372466419892513 0.002121722863783926 0  -0.2375116452508441 0.2740009826971449 0  2.066854232312459 -0.08900309098674609 0  1.567083020571028 -0.4726553000632672 0  -0.7563212001992061 0.1221625386604957 0  0.7334170590461606 0.2755840062732937 0  0.2194238335498619 0.8316107537096188 0
[...]
<PointData  Scalars="f_3053-1"> 
<DataArray  type="Float64"  Name="f_3053-1"  format="ascii">3.4628539066381808e-01  3.3142532563055077e-01  3.3405445307642945e-01  3.3143558722404592e-01  3.3003755709663557e-01  3.3702332786577827e-01  3.2798930848644964e-01  3.4282657288445328e-01  4.0719492792579481e-01  4.2645185449658335e-01  4.3837686184181890e-01  4.1958381796914934e-01  4.2183731222764043e-01  4.3809776662902483e-01  4.3560172230291344e-01  4.2972352703203009e-01  4.1075837011438815e-01  4.3037229287234197e-01  4.5438673253415551e-01  4.3542613225286891e-01  4.2809140696680792e-01  4.2917763007720489e-01  4.0339210592960045e-01  3.2047691022111141e-01  3.3230746590516747e-01  3.1714844879447357e-01  3.4808337805208950e-01  3.3150705186544632e-01  3.3952534234183857e-01  3.2798053425313561e-01  3.3559103557476777e-01  3.4014313233164412e-01  3.5468918417453582e-01  3.3434461371607882e-01  3.5674834216430151e-01  3.4937406983957248e-01  3.5270806097314067e-01  3.5801944201047570e-01  3.6949624846707546e-01  3.6774112838612344e-01  3.5940418825271925e-01  3.7049197429729158e-01  3.8388437070743375e-01  3.4758634539029554e-01  3.8043780303767799e-01  3.6883128733890136e-01  3.7218917350054370e-01  3.7144252336390077e-01  3.7344862161145964e-01  3.6008978252659907e-01  3.6039401296164009e-01  3.5715079288527951e-01  3.6374196444407825e-01  3.3848963384091807e-01  3.5780465042227078e-01  3.5458248400109099e-01  3.4306461681864858e-01  3.4731132079346783e-01  -1.0736137290971370e-01  -5.0247857392852806e-02  -4.3840271076924252e-02  -9.8178632517392936e-02  -4.3102030220891339e-02  -1.0973056026411046e-01  -4.6690631395475260e-02  -4.1974661637681106e-02  -4.4270231114231666e-02  -1.4834716553378095e-02  -3.1970180787007953e-02  -1.9336116879895657e-02  -6.3959922846593626e-03  -1.9099673890123556e-02  -1.5113574705856815e-02  -1.2648204250473541e-02  -3.2273589688148574e-03  -6.1143349169750678e-02  -8.1359797223418719e-03  -6.6013576773101851e-02  -5.9875218272256357e-02  3.1554456315633231e-03  -5.9873917122735154e-02  -1.3137957708323732e-02  -1.8268634569399853e-02  -1.4816365683621146e-02  -1.9907574918492370e-02  -3.0937245245111256e-02  -3.3320691230358510e-02  -9.1463655428296167e-02  -8.4011675125722343e-02  -9.4268378568255234e-02  -2.5418217538480056e-02  -4.7092737503952702e-02  -1.0037457955716989e-01  -4.0201103469936453e-02  -4.8110724063922798e-02  -3.9061042981822384e-02  -9.6646977252258556e-02  -4.7653411591107572e-02  -4.6058828784997022e-02  -3.3429415011976035e-02  -4.4130726350144346e-02  -2.2569020320158877e-02  -7.8036887586183643e-02  -2.2056216180754193e-02  -5.0610346759779072e-03  -2.3332306791023907e-02  -1.6284792831318552e-02  -6.8790496552713035e-02  -1.0117379391741158e-02  -7.7945314359623326e-03  -5.1153554945986474e-02  6.0002950231552252e-03  -1.7056388461372781e-03  1.8402012352065428e-02  -6.1186451876575915e-03  -5.1544266972573922e-02  7.0497479569603578e-04  -6.0627088580187054e-02  -5.9387905858037611e-02  -5.7741785946070698e-02  -3.6017946893894407e-03  -9.7330637241418074e-03  -7.5924954661458890e-02  -8.0907997251863095e-02  -8.0143879927258924e-02  -2.9730626863481928e-02  -3.0096335014780692e-02  -8.6875209976006590e-02  -9.9313180387369360e-02  -8.7644506103104258e-02  -9.5629267007777019e-02  8.0025296309776850e-01  6.1561067589885513e-02  5.5570617699436303e-02  5.3827779021449168e-02  3.2977217601465166e-02  3.2312446057877836e-02  2.4277645241024902e-02  2.4624526785782513e-02  3.2943038028983677e-02  3.3344562251443680e-02  4.9650511137640956e-02  4.9016722989685971e-02  6.3212482027079145e-02  6.3579645386111563e-02  6.8927587675291904e-02  7.8650501666235673e-01  7.8420896078450231e-01  7.7433197551823618e-01  8.3695699696021864e-01  7.7455138456122175e-01  5.9762751155877016e-02  4.4437110244589906e-02  6.7801585794441135e-02  4.2661349163533445e-02  5.7471814664022708e-02  8.3942310314129531e-01  4.3658547476779788e-02  2.5766892768327835e-02  2.5325555548857126e-02  5.8456049131043727e-02  4.1599104679488227e-02  5.7741403293342340e-02  2.4451865910340653e-02  2.6128152061417085e-02  3.7006405751798470e-02  3.9895916418999047e-02  2.0442705679137255e-02  1.8109508333154185e-02  5.5397480523175786e-02  5.5889062571512625e-02  5.9321440803468559e-02  6.7224951911797656e-02  6.5540629561058231e-02  5.4417980722247114e-02  4.8912895466382264e-02  2.3942460495886695e-02  5.7613431110706249e-02  2.3764127799361483e-02  4.0429694256597912e-02  4.0362819129984760e-02  3.3967752389576659e-02  3.2502848916092369e-02  5.5841259852560339e-02  5.5633525786630271e-02  2.1594455626938937e-02  2.0853193102141451e-02  6.5986196573986813e-02  6.2692616767625498e-02  4.2293287110518378e-02  6.6480977641636782e-02  2.7058938187924340e-02  2.7195693726815465e-02  7.6874689758804493e-01  3.1992432970059131e-02  7.9709779015187165e-01  7.6945188727857894e-01  7.6934403823223418e-01  5.1537318716424946e-02  4.5070990538832685e-02  6.1240197997092218e-02  5.0912816318623072e-02  5.7393492560993166e-02  2.6973022558373600e-02  6.5601602070534171e-02  3.1875924226160895e-02  5.8259164708032926e-02  4.9204457627539853e-02  2.1483123715743291e-02  1.2599141256603281e-02  5.2499629189501788e-02  7.8992692762200201e-01  8.5853769968838234e-01  5.4419588669529562e-02  6.0099009537780780e-02  1.8285008337430783e-02  6.8249486683946217e-02  4.8420109290956755e-02  6.7823577945867214e-02  2.4826734283562385e-02  2.5453981919414604e-02  6.9466913730801827e-02  6.1330949389580211e-02  6.6112747307862055e-02  7.8200348294610800e-01  2.5961725492513296e-02  2.9360541719299853e-02  4.1948942657504380e-02  5.0701202736206090e-02  5.8396113864512982e-02  4.0340883285761742e-02  8.2411362197359683e-01  8.0706686555884011e-01  7.8807367308830467e-01  2.0561413774629465e-02  2.5134672832649581e-02  7.4600534081378023e-01  7.5536576685476042e-01  7.6027940400531979e-01  7.4884013793020365e-01  7.5692114048846770e-01  3.2557543673359765e-02  8.3987584727647402e-01  5.3962776418991311e-02  7.8762960728903419e-01  8.0796771562638903e-01  5.8486487121898925e-02  5.6161510165959772e-02  7.4917596728210589e-01  3.5813954050671976e-02  4.9782438799933916e-02  3.9207222944778679e-02  5.9849939540412643e-02  5.4805610042094867e-02  2.5652050599519888e-02  6.4116407249763710e-02  6.8323971386091462e-02  3.9619421637288557e-02  1.8605383038381051e-02  4.7751183153889022e-02  7.5886132035406484e-01  6.6420485475340199e-02  1.8909824904644150e-02  3.3908360550853910e-02  8.5030036146387533e-01  2.1592641876760615e-02  4.3713729545618356e-02  4.7569964877088027e-02  4.0000723346614739e-02  2.8263827244329697e-02  4.7866195760971855e-02  7.6285239576122280e-02  3.1224483960781074e-02  5.8836075432911250e-02  2.8772820153825429e-02  6.6185468510787618e-02  5.3275082574037722e-02  8.3887844147454471e-01  3.6146725224922238e-02  5.1612441670383036e-02  4.9481086416065655e-02  6.7873371525408829e-02  8.6084468263343905e-01  2.5698336790081260e-02  5.2917996461849845e-02  8.7712214997696589e-02  1.9491992994410359e-02  6.0813723365708797e-02  2.4933691857540016e-02  4.8809520680570123e-02  2.9125836311432150e-02  3.3675611853734251e-02  7.3845614507226348e-02  4.7621048766939705e-02  2.4743873942882230e-02  5.4699964225757722e-02  5.9490909612186678e-02  3.1845363740337841e-02  5.7480905510513457e-02  2.6671134025761812e-02  2.0788606340976633e-02  6.1615151418785256e-02  5.2112010742395055e-02  3.6749307936280666e-02  4.3976184573270301e-02  2.6876283835704288e-02  4.3608396497245981e-02  7.6732631704462678e-02  5.6043407646546806e-02  6.0622545871837699e-02  6.5235850927354816e-02  4.5600409524880141e-02  3.4443832987288356e-02  3.8534541297057981e-02  2.1979152080322549e-02  2.0311686917749702e-02  5.9725372537942016e-02  5.2892384800846383e-02  2.3532379551816928e-02  4.7042597843366105e-02  8.1296155568252804e-01  5.5450503110890011e-02  3.8005240327974102e-02  2.2323935608489835e-02  3.9993510962872555e-02  2.2149516389109686e-02  2.3731148134568125e-02  5.8078231394826554e-02  5.6492741030745190e-02  6.0135790629199666e-02  1.7707292753037510e-02  2.4609959632514694e-02  3.7250844868595118e-02  3.5483391647750655e-02  4.9659271748778079e-02  7.5055037577729050e-02  8.0207611115723859e-02  7.1610701381635972e-02  5.3909330086496329e-02  3.7267817900136127e-02  5.2168090417736138e-02  2.9665489410851894e-02  5.6399543956652240e-02  5.4027422397570357e-02  2.9691457940246566e-02  4.4426860168674663e-02  3.8408023303059362e-02  1.5415292392685860e-02  6.2945947797642954e-02  8.9893757996762177e-02  4.9048871590726392e-02  2.1459250269413602e-02  2.8177242969015970e-02  7.8117562795506690e-01  3.1333947231558010e-02  6.0378932858698504e-02  3.5014010887735127e-02  6.1828258785039183e-02  5.2103631026443893e-02  5.6831391326089602e-02  6.1423380342855403e-02  7.7742279153518590e-01  9.2545391057637053e-02  8.5253231407702537e-02  4.1656539150195106e-02  7.7856894792846043e-01  5.5023193079628857e-02  6.2125396761709951e-02  2.9132484572321919e-02  7.4322201066183258e-01  8.0079074067633449e-01  6.8275725562264314e-02  6.5964284717511090e-02  7.9024847327434256e-02  4.6579329253630557e-02  2.4817075263060383e-02  2.4694947745956188e-02  6.6472802498796765e-02  6.7687022834283878e-02  2.2792965725471299e-02  6.8745353861297542e-02  1.3282702556047390e-01  2.1707404965858171e-02  4.5338168882024986e-02  4.5207690280613187e-02  1.3732982346482394e-02  7.2766810070653165e-01  2.7863415881559533e-02  6.0006537010916655e-02  1.0116070434978029e-01  8.4259348448880822e-01  2.5513222004192950e-02  4.8142051377104811e-02  6.0476745530442813e-02  1.3610131093194915e-02  7.2057980418973144e-01  7.2699481716809977e-01  5.7931509989578245e-02  3.2740932165670242e-02  6.1286612814070419e-02  7.4731710733305334e-01  1.5436115958969319e-02  7.2205540567595539e-01  2.6917327528140637e-02  3.9691998491909797e-02  5.7642360265554304e-02  4.9852161554973955e-02  7.2278002502774608e-01  7.2054210869623136e-01  2.7454970388891421e-02  6.1091387399465423e-02  3.9479330797720959e-02  3.9305186696077438e-02  6.5745107961580285e-02  7.6973941525073308e-01  7.7038830843085870e-01  2.7134695485717751e-02  5.6878029298078524e-02  2.7856814988333031e-02  5.0268102402853711e-02  3.0643100570222671e-02  6.7562469666117952e-02  7.7484657676865099e-01  2.4988552205728234e-02  3.5372008371011870e-02  6.9857971932531659e-01  4.5689560368587616e-02  2.4259581114984850e-02  1.8811188994056902e-02  1.3375689452466304e-02  7.7157575272876500e-01  8.1949549644255670e-01  3.3912291793161527e-02  4.5903937925944660e-02  5.2879611331535147e-02  6.3970620189280097e-02  2.4443174962962489e-02  9.2925467999077513e-02  5.5863761465630844e-02  4.0328759260898031e-02  3.4698125033365133e-02  4.6440165881640169e-02  8.5524175960220228e-01  2.6410950855266738e-02  2.4317037097848153e-02  7.4169103660628599e-01  6.8206106842947242e-02  6.0469335976264360e-02  3.2272996653473683e-02  8.4471940327656758e-01  7.7398797860890356e-01  2.5693121029573600e-02  5.0096484001996192e-02  1.4602951091427851e-02  3.3965018406312893e-02  5.8876412799877230e-02  5.0329643617077272e-02  3.2823502273019729e-02  7.9258553003853727e-01  4.6482896417575914e-02  7.1829089992708417e-01  3.2718986621216924e-02  8.5338015624599484e-01  6.9771015362656363e-01  6.0506017718109061e-02  7.1292166120005263e-01  5.9981724888682954e-02  8.3026627346376433e-02  4.2212888464397968e-02  6.4395873776457224e-02  8.0408455105297849e-01  7.6568150181121522e-02  6.7103625698254135e-02  8.2156015610645450e-01  5.3109923233484076e-02  4.7559383410629499e-02  5.5422644213059202e-02  3.5771689284073038e-02  3.8236184722263040e-02  4.1775701605573694e-02  2.8767620921988302e-02  4.3778142179336038e-02  8.8718748510920875e-02  1.3460783153613076e-01  5.6247813714784801e-02  5.2144907747393790e-02  3.5422778392469517e-02  5.1876921136801403e-02  5.8914049089850998e-02  5.9486395741006864e-02  5.9207897121205201e-02  6.1106035160087800e-02  6.3088564937485478e-02  5.6756844637618820e-02  7.4850603724602491e-02  3.6010654045291884e-02  5.2988775693099698e-02  4.8509859495958589e-02  1.9075004199876351e-02  9.7580212669173966e-02  7.8187426152535344e-01  7.8972442992984615e-01  1.9161451719641811e-02  5.1717943689894248e-02  2.2922574388427885e-02  2.3659780620470965e-02  4.6861531693723327e-02  4.8962491636154390e-02  8.5793400061262115e-01  6.8262354602984118e-02  1.2894316881674267e-01  7.6970086310248376e-02  6.1052374466809792e-02  5.2395937910167584e-02  1.8162633757720498e-02  3.8160952231102344e-02  3.9962290327160421e-02  5.5040727373393057e-02  4.0171205588429598e-02  5.7487372958066565e-02  1.7101457132975183e-02  4.7746777429777454e-02  5.5889270444380530e-02  1.4068984630174813e-02  6.6634317379100763e-02  1.2887733847406108e-01  6.9234946538897946e-02  7.8424961356298695e-01  3.8894833751106750e-02  5.8464096986732321e-02  7.7066251374414041e-01  7.6686919993734237e-01  1.2840660555634684e-01  2.9540016021538176e-02  2.2308324502924845e-02  2.6412451986835735e-02  6.1166530529196912e-02  7.7960648326443938e-01  5.9240568417013389e-02  2.8724545135548837e-02  7.9586223290854297e-01  2.3669234718817982e-02  6.1551410774804728e-02  7.7460452756499143e-01  2.2495281866118003e-02  6.8565053730397163e-01  7.8124833771294078e-01  8.3479475437654382e-01  8.2218600586478330e-01  6.4605669884588532e-02  4.9667737440636531e-02  5.2191205635758561e-02  4.8905971258856692e-02  1.2498736910760902e-01  7.7337552364319850e-01  4.5415656344409028e-02  2.6260978357551985e-02  2.2708589582566399e-02  7.9138097133186214e-01  7.9838330126405244e-01  3.0297938442551364e-02  6.1444305340582518e-02  1.6234917144532963e-02  8.1179768136401509e-01  8.1061067413500476e-01  3.6654445361623426e-02  4.6934657504243651e-02  2.4987717005541674e-02  1.1457325295033594e-01  5.2243871694181654e-02  5.0873633640741114e-02  4.5627716358430437e-02  2.8834810156034920e-02  5.5864274535339667e-02  6.3787147629882870e-02  7.9455490413230279e-01  3.5222727692647442e-02  6.5262723149658652e-01  5.6409033774273976e-02  8.1666874900383823e-02  3.0111240129335439e-02  7.9877907098932133e-01  1.3079216856112859e-02  3.6435651258392904e-02  3.8582662772657032e-02  4.7654742382251772e-02  2.8725044066528073e-02  2.6318646941151255e-02  3.1108856152405370e-02  2.8866417076573093e-02  4.1626450134425813e-02  6.8681310428392386e-02  7.0177303261862570e-02  6.2153901626134857e-02  5.5731231396168437e-02  6.6966435322562065e-02  5.2780998758181243e-02  6.6943065610242825e-02  5.4930594839327163e-02  1.2877063300686981e-01  5.1835708418250560e-02  5.8968739649787348e-02  3.9869803322757670e-02  4.1832336718176086e-02  8.0122205465250773e-01  4.4884174039735138e-02  4.7784006404885136e-02  7.6575136912918607e-01  6.0232959650321681e-02  5.6539966229627030e-02  4.5988244715942553e-02  1.5487345606612596e-01  3.4409544346779203e-02  1.5098804163163071e-01  2.4336057289125461e-02  5.8761736074762594e-02  2.6495130878739157e-02  2.4448719018445638e-02  6.5808105440169151e-01  3.6255761959718170e-02  3.0418215401782571e-02  2.5601619844021459e-02  5.5623341229136453e-02  6.4173675057943147e-01  6.7770172837488915e-02  8.2989561801811174e-01  7.6448721869276082e-01  1.2147033578409680e-01  2.1276355992401984e-02  1.8653207589762036e-02  1.7981673131495519e-02  6.4381559472383776e-01  4.5595286395501811e-02  5.7929007508757326e-02  2.2805150558605203e-02  2.4772508456365590e-02  2.5729678680185684e-02  4.7909238282595953e-02  7.2837190514289307e-01  6.3279500381925002e-01  2.5125379976131353e-02  6.4701616336813661e-01  5.4719016910660320e-02  3.1227279052673623e-02  4.7632597783353096e-02  4.5731120121002888e-02  5.4257186786963514e-02  2.5160978626253390e-02  2.9497087554456819e-02  7.6376305867085870e-01  2.6350677307547796e-02  3.8484763254020990e-02  7.8003217005198155e-01  1.9698989440005543e-02  1.3841304866910426e-02  2.1248879823659153e-02  6.4395458088008339e-01  4.9205997309596891e-02  2.1747716174871558e-02  1.5700470018614958e-02  6.0407523944546161e-02  7.7645751549416320e-01  6.6671933727912969e-01  -8.6620574785889741e-04  3.5636416858778802e-02  9.7852879058141079e-02  5.7707743455874920e-02  4.3219243426291208e-02  6.5034785521739724e-01  8.1346880444170844e-01  5.4754950381123282e-02  4.5425741217323574e-02  7.6150996795944281e-01  1.0209801642831673e-02  7.7531305312630305e-01  5.2779741916534527e-02  8.4179127031909870e-02  3.3276037081737632e-02  8.1528396275357817e-01  8.3827638836829044e-01  1.4750762890565977e-01  6.5087395544566662e-02  6.6776627652190459e-02  7.7163365076600454e-01  7.8652681060974072e-01  3.3439610648412152e-02  4.3277084040879293e-02  2.9759368064940818e-02  2.4291711850181318e-02  2.5287414746229881e-02  1.8650070229322718e-02  7.6183987075491677e-01  5.0695845615552418e-02  3.0788938248008511e-02  5.5562085922318566e-02  7.6909287489345524e-01  1.6248572265567505e-02  2.9095973670763119e-03  4.0178799730881946e-02  2.7257648355845782e-02  6.5511470446698777e-02  3.0066255218037716e-02  3.5659575416688669e-02  3.4263869241781701e-02  2.3370836539018357e-02  5.4537923738825884e-02  7.6228212539953477e-01  5.6623535185400878e-02  5.9390519034896179e-02  5.6966579104684431e-02  5.7538991578178697e-02  2.7278380535947867e-02  2.8521956407988890e-02  3.4062851399443934e-02  6.2595737636204726e-02  5.4262079338753551e-02  3.0314885155826875e-02  4.8815458126919904e-02  5.9581153000575399e-02  4.3788627644091464e-02  3.7230587062430057e-02  4.2025970923300709e-02  1.4654394318934999e-01  2.8770254362185058e-02  6.1981204703992543e-02  5.8693632773449765e-02  5.6218167932304844e-02  6.0602500890469910e-02  3.3538446614609321e-02  1.5976329037807421e-01  4.1509701660742651e-02  1.8130391667066977e-02  5.8573525465127688e-02  8.5842798424516087e-02  4.0769095249987022e-02  1.0331598293441525e-01  4.2445481912397207e-02  5.1019539596273110e-02  4.4211393978904188e-02  5.7712210764373974e-02  1.6572808862650024e-01  1.4628986906506058e-01  8.3314647869115543e-01  4.8641223496002563e-02  2.4868852797065365e-02  6.1498088447701237e-02  2.1402303317401727e-02  5.9843098902727224e-02  4.9275047339772816e-02  5.2606042646974591e-02  7.6395786492516071e-01  2.6936247173079200e-02  9.3422194239911355e-02  5.6634691096448954e-02  4.6932870760655394e-02  4.1965173825575915e-02  6.5228206388430507e-02  6.7493736447850769e-02  6.5115880614961555e-02  7.7638147365519339e-01  3.6432828031603352e-02  9.1610395327762689e-02  9.3846474092397117e-02  2.7515377653619492e-02  1.3712753180592755e-02  1.3401933424623251e-02  6.4493556681579786e-02  3.4239952883871841e-02  5.1364721049326066e-02  3.7930290695652673e-02  3.7075473698324743e-02  5.9644716268627940e-02  1.4577177388508517e-01  5.8921530127675259e-02  6.8740001276419840e-02  6.0754367515546609e-02  5.9692745669992574e-02  2.7573083957810073e-02  7.8581045352410173e-02  6.6262043972312917e-02  6.1518371180421812e-02  6.0582090962328083e-02  6.7955396870695281e-02  7.0398257411843546e-01  8.5558340191144033e-01  9.6398749007462689e-02  1.9657115494160281e-02  5.7101535185003334e-02  4.4431887058370693e-02  7.6111805334824145e-01  1.7296938296915804e-01  4.6378394628456297e-02  4.3608059538812610e-02  4.2898850073274486e-02  5.6506306072425433e-02  6.8427978396606040e-02  6.7133724514183840e-02  6.7561261819089946e-02  2.3861153639464627e-02  1.7827552739269736e-02  3.5012671392429368e-03  1.6166128694226366e-02  2.1721299433931519e-02  6.1856789801694477e-02  4.6664414443686471e-02  2.2774338222862338e-02  1.0104640872381833e-01  5.7779926602248288e-02  2.0561380872124294e-02  2.5138599870814269e-02  2.8234614018727622e-02  7.3460434612793812e-01  5.1131350637919605e-02  1.4299660497055477e-01  3.9553413111463001e-02  8.5536506240667631e-01  8.7035126800856433e-01  2.9181583998456946e-02  2.0761764845188265e-02  4.9158390261213526e-02  2.4148512419460800e-02  2.8214258913748156e-02  1.7735633218957238e-02  4.8667355813489341e-02  5.4074932169612226e-02  8.0723428176524337e-01  1.29371620586