<?xml version="1.0"?>
<VTKFile type="UnstructuredGrid"  version="0.1"  >
<UnstructuredGrid>
<Piece  NumberOfPoints="737" NumberOfCells="1356">
<Points>
<DataArray  type="Float64"  NumberOfComponents="3"  format="ascii">-0.9357060591460928 -0.03613144323545751 0  -0.9347395368093309 -0.1391295938108016 0  -0.9223711712742432 -0.2411980897205963 0  -0.898764288574741 -0.3407989097107011 0  -0.8648171089540778 -0.4369062221309163 0  -0.821290380961941 -0.5267387694342831 0  -0.7698289648605413 -0.609335995374036 0  -0.7102519872969398 -0.686207522398988 0  -0.6437584596676459 -0.7557102379312974 0  -0.5717239497965981 -0.817356750865703 0  -0.4939098666688987 -0.871222167378779 0  -0.4116338091826824 -0.9167089950252889 0  -0.3246351944328897 -0.953882857401704 0  -0.2337914547576071 -0.9822153206724915 0  -0.1423680445922903 -1.000967829444365 0  -0.04920586759196111 -1.010502297755423 0  0.04554354259823578 -1.010714646318845 0  0.1390998041737316 -1.001475683982886 0  0.2305865513506082 -0.983182259501721 0  0.3205994291420044 -0.9555526923599685 0  0.4076369776092456 -0.9190189946010859 0  0.4897284867151578 -0.8741388561492475 0  0.5684864819951717 -0.8202742637313651 0  0.6415555292796342 -0.7585297643641329 0  0.708222718717071 -0.689351383852138 0  0.7672906380623576 -0.6140070912907699 0  0.8195368685569051 -0.5309062160527662 0  0.8633658117035633 -0.4410384113947965 0  0.8977361797745078 -0.3456199972103103 0  0.9216417025569844 -0.2465619101577513 0  0.9345976459304473 -0.1445069886406159 0  0.9361254496316247 -0.04096958486129645 0  0.9259961216185272 0.0624519031872585 0  0.9043100411570203 0.1647418594212028 0  0.8712634466410756 0.2638057721344184 0  0.8268054634944112 0.3591534405617768 0  0.7720851485297542 0.4489392156533685 0  0.7071843919489331 0.532496503807689 0  0.633337518125195 0.608159189620668 0  0.5512443110359313 0.6751106101718263 0  0.462175465664788 0.7321724497620578 0  0.3659129028646106 0.7794990575009203 0  0.2654781616340829 0.8153510554847108 0  0.1618778580339296 0.8395847996818423 0  0.05551615382703329 0.8519351751220687 0  -0.05094821132529279 0.8522050285951471 0  -0.1565239281456627 0.8404457988465595 0  -0.2611253132020953 0.8165281167563814 0  -0.3615806731120301 0.7811665697852423 0  -0.4565215841979369 0.7351639352814788 0  -0.5465115118424814 0.6781872477258925 0  -0.6297644810908111 0.6110524840338006 0  -0.7038046625246298 0.5359389010975085 0  -0.7687985947516361 0.4533989416062054 0  -0.8246031328087527 0.3631370160659889 0  -0.8694636069991002 0.2677575607200964 0  -0.9028609005927986 0.1694280804137708 0  -0.925053915155472 0.06755025658343745 0  1.891194789537644 -2.681076050352479e-06 0  1.880113570901703 0.2044720397779311 0  1.846981009904142 0.4065504654881872 0  1.79218917881397 0.60385609641355 0  1.716397620370209 0.7940871788493231 0  1.620488175502136 0.975010769168725 0  1.505571629835837 1.144507947056179 0  1.373002579824624 1.30057289418504 0  1.224337982672738 1.441403908344713 0  1.061316231308513 1.565324055413951 0  0.8858541970144725 1.670899616043895 0  0.7000101427437292 1.756877793879354 0  0.5059474647675225 1.82225428845124 0  0.3059595363082095 1.866287961501675 0  0.1023824463103542 1.888425537300711 0  -0.1023866683110721 1.888425660737738 0  -0.3059652557932593 1.866285286106734 0  -0.5059467244788571 1.822266650559846 0  -0.7000016823143963 1.756872461272315 0  -0.8858519422383118 1.67089838234921 0  -1.061312610486883 1.565315787120376 0  -1.224337817963371 1.441399485135901 0  -1.373002870390757 1.300574981030481 0  -1.505567528726926 1.144506392855221 0  -1.620489842512185 0.9750088724001579 0  -1.716404001746159 0.7940924764377767 0  -1.792198562117283 0.6038667945116558 0  -1.846969606901331 0.4065466028406036 0  -1.880110989586268 0.2044696129489984 0  -1.891196232446151 1.924690563231405e-06 0  -1.880109060648328 -0.2044777717542602 0  -1.846979646914045 -0.4065524879732998 0  -1.792187235410876 -0.6038608026291573 0  -1.716400357942858 -0.7940980378213328 0  -1.62047582804304 -0.9750097604065345 0  -1.50555985691718 -1.144497963539701 0  -1.372990799028412 -1.30056851330968 0  -1.224325699399071 -1.441391796957684 0  -1.061307772785401 -1.565314820457708 0  -0.8858489438009873 -1.670896287734451 0  -0.7000003819628495 -1.756868811220057 0  -0.5059507758881334 -1.822260648881359 0  -0.3059588732323869 -1.866271079153452 0  -0.1023867545368973 -1.888410794697986 0  0.1023914665982164 -1.888420746398714 0  0.3059544421242711 -1.866283097729134 0  0.5059484677224542 -1.822260263717065 0  0.70000238042945 -1.75687563168779 0  0.885852523850067 -1.670894196844382 0  1.061308069185744 -1.565317080630801 0  1.224333365460585 -1.441399753919197 0  1.372992204650006 -1.300570074192087 0  1.505570061290395 -1.144500313950529 0  1.62047640434318 -0.9750088643257147 0  1.716401078093038 -0.7940968937106896 0  1.792188484625937 -0.6038593529360042 0  1.846980679347723 -0.4065556958786917 0  1.880101152071467 -0.2044734599496316 0  8.772153674453887e-05 -0.04472935390490292 0  1.072303085078084e-05 1.371475727664395 0  -0.6214824950061738 1.22415005332695 0  0.5847926191148956 1.247041905742151 0  1.014222115500289 0.9383047994060573 0  -1.06794775023764 0.88843392850859 0  1.30856341703189 0.5018337082366813 0  -1.338021607540318 0.4078866305645283 0  1.412856391961145 -0.05617146983582453 0  -1.416901456234834 -0.09770442544276693 0  0.0008424561138258512 -0.5162586044403498 0  0.002699200895726719 0.4083784387116212 0  -0.4702085516505402 0.0007120244110202373 0  0.4270308019133388 0.145218639710881 0  1.335006522354232 -0.509244186464001 0  -1.326016674596938 -0.5496041310844153 0  1.093886369751389 -0.9518102966073058 0  -1.094159203232484 -0.951740276932063 0  0.7411907265820763 -1.257782442705093 0  -0.741405177777087 -1.257292438591007 0  -0.1555393697300936 -1.45542682095256 0  0.2831628006092287 -1.43245899184349 0  0.3998981526319398 -0.3098786781784666 0  -0.385529405129624 -0.4036333575351065 0  -0.3541680485572362 1.487739362505818 0  -0.2795078422818429 1.15146661801384 0  0.3349211660019192 1.510594027086146 0  -0.3794498645837288 0.3577571441296016 0  -0.9641717271745792 1.223412371128115 0  -0.4189715016571315 -1.281364249884328 0  0.9669691852215203 1.260972006470656 0  -1.370441158328032 0.7508049802924995 0  1.562713237205674 0.2431028597238663 0  1.3248999417187 0.839078695357891 0  0.3341719008755726 0.4509423856867358 0  0.2815746253248372 1.131589632909327 0  -1.587326938928367 0.2480541217579098 0  0.2914118606731412 -0.6059492898911364 0  0.6345352038445903 -0.1349893398319485 0  -0.2120440265965922 0.1405113495748824 0  -0.7490367174019357 0.9201918930165451 0  0.7007303777443555 0.9460943082018699 0  1.567986762474879 -0.3050927201571108 0  -1.067609987264689 0.5619862747568632 0  1.219418387704343 0.185526624426493 0  1.369340901842738 -0.8050610381317049 0  1.03062025374945 0.5616577796154518 0  -0.6101095089503655 -1.495944231681588 0  -1.615251930608649 -0.2756658749553756 0  -0.6209916533560006 -0.259160980212741 0  -0.2593865543654513 -0.6579901958587505 0  -0.6253300984563499 1.498836947323684 0  -1.219041205148467 0.1186025981130122 0  0.001881930137627745 1.104995110797435 0  -0.1145320501688735 1.61976666099911 0  -1.367840643649799 -0.8311732536303215 0  -0.1401638876487099 -0.2801832668266552 0  0.7678594086931076 1.437767048816737 0  0.5203175900914728 -1.560104471531162 0  -0.4945376154049234 0.9961534921848417 0  -1.177730590418757 -0.3292485727090735 0  -1.129849124176571 -1.204612503615341 0  1.033265092492305 -1.227112375565907 0  -0.8077961495270647 -0.993852634274952 0  -1.043051521588676 -0.6904544188363838 0  -1.197030997513645 1.116138604369264 0  1.186412672293782 1.13032553877252 0  1.205730896125473 -0.2677269010230428 0  1.080947564788778 -0.6711200660158443 0  0.8053733809421522 -0.9948801789235587 0  -0.1534999752010961 0.5997130716415311 0  -0.6156267553136772 0.2091061046194622 0  -0.3531535265360507 -1.61962915753738 0  -4.208225472260374e-05 -1.657545151928833 0  0.4933081124935163 -1.303164706843494 0  0.8546939637497161 0.7422567974387929 0  1.503170794135297 0.6668785045913797 0  -1.571339843897887 0.496543241965869 0  0.1471507401643572 0.180203621666185 0  0.6745712643241846 0.1024904797431387 0  0.5639613649383531 0.3351546093357265 0  0.09676601549558136 0.6201516497691413 0  0.1023919144922372 -0.7448179157880298 0  1.543289644892241 -0.6332649712125323 0  0.1337138470196984 -0.2794485225993215 0  0.2833104931448338 -0.06620273284919852 0  -1.655606350771853 -0.03946808265456905 0  1.651577520673657 0.01962732667036576 0  -0.7051186610447905 -0.04571933622891541 0  -0.8931852105203542 0.724621033601867 0  0.5605108761054463 -0.492603932646676 0  0.05525629494967024 -1.292884127196005 0  -1.096495616053832 0.3191090273664128 0  -1.554134023253509 -0.6282384978850409 0  0.1298724588468562 1.647498418672452 0  1.182911341613889 -0.04470185075752045 0  0.5687473432175331 -1.094428777820548 0  0.4921961313140182 1.040206243380874 0  -0.8541876584721564 1.43700474921879 0  -0.5545046468730543 -1.109305901443298 0  -0.257868913929649 -0.08421393910530377 0  -1.187500682047206 -0.1076453067946926 0  -1.299081790483985 -1.056122579906969 0  1.236572705135546 -1.126600254321456 0  0.5658449679241591 1.565185718937702 0  -0.8659084029888275 -1.45053068543239 0  0.7406348011013104 -1.489409472226121 0  -0.5887949703681492 -0.4769672103463472 0  0.9053567410560683 -0.8087842408012139 0  -0.2036045365988465 -1.229104032647657 0  0.3254985609803057 -1.651464578948078 0  0.2447425681899891 -1.209839620590469 0  1.088632736416564 -0.4600952742548415 0  -1.398333857388241 -0.3079855890385647 0  1.51254640880518 0.4505126408118038 0  1.071476308137568 0.3406283472400082 0  -1.365718832519268 0.9755007829408846 0  0.7809629574045577 1.150443696339852 0  -0.3979791743085015 0.5504376423028785 0  -0.4547603968562707 -0.6285659348174299 0  -0.4315895960257391 -0.1903994145369733 0  -0.0789
[...]
<PointData  Scalars="f_581-1"> 
<DataArray  type="Float64"  Name="f_581-1"  format="ascii">4.4259999532593203e-01  4.3222923348535419e-01  4.4381039407571227e-01  4.3973114881029535e-01  4.3252399004191017e-01  4.6464466393489046e-01  4.9459737212638971e-01  4.7738686321524954e-01  5.0694108263920756e-01  5.1485488175566696e-01  5.0154183268470631e-01  5.2206552026638320e-01  5.1759719623234024e-01  5.0180250662330372e-01  5.0914517478337296e-01  5.0654925347456459e-01  5.1566441994766055e-01  5.1728652430928013e-01  5.1754176143803576e-01  4.9311527467545635e-01  5.1423416786891607e-01  5.0468586930597015e-01  5.1520217648648559e-01  5.1840254313914702e-01  4.9723225133540999e-01  4.8000524453904891e-01  4.7675003607020489e-01  4.4363207886416556e-01  4.3532744418759767e-01  4.4875041562552020e-01  4.3801928625991493e-01  4.2954390625450883e-01  4.4534805565659069e-01  4.3408807132359334e-01  4.3667264505618575e-01  4.3482292554154706e-01  4.3939664568167369e-01  4.4895265716419486e-01  4.3319115144482784e-01  4.4862888126957801e-01  4.3677634524360476e-01  4.4919133769939085e-01  4.5017842233482852e-01  4.3433853207472778e-01  4.4187000332584575e-01  4.4145193490212309e-01  4.4829697062027002e-01  4.4675310937110185e-01  4.3926431382519060e-01  4.4175026915816601e-01  4.5085543224030472e-01  4.4957752466767142e-01  4.3378529482149775e-01  4.4585515517061342e-01  4.4486355671033395e-01  4.4349824007954186e-01  4.2830266724705512e-01  4.3363262889316856e-01  -3.0129177939293171e-02  -1.0096298111964266e-02  -1.9456296230392262e-02  -7.3177747392402848e-02  -5.9628623484232021e-02  -9.5283153538076489e-03  9.7146142824408293e-03  -1.5664617552533899e-02  1.3364876002396950e-02  -5.3133128793824485e-03  7.8170068836160064e-03  -7.2177440513190990e-04  -5.2766648462722117e-02  1.2513015800916278e-02  -5.0536876384716604e-03  -9.1093226506469040e-04  1.1868540131359921e-03  8.2414006311398065e-03  -4.3055472013500837e-02  5.3999916657995568e-03  -5.0403891977363065e-02  3.2377582680895574e-03  -9.0563701209433658e-03  -1.5115355595222587e-02  -1.2411921479198840e-02  -1.9401122513304263e-02  -1.6353587885373548e-02  -8.6202300464783083e-02  -2.1749833091507263e-02  -2.9036032561731675e-02  -2.9498258617632601e-02  -3.1460588939933462e-02  -8.3268514853745021e-02  -2.5697166692399291e-02  -7.7816802608861702e-02  -7.5637731958148990e-02  -7.8024080143099625e-02  -7.3970632061870087e-02  -7.3284974759993890e-02  -1.7113419856901242e-02  -6.9243135478242915e-02  -1.9770157080999794e-02  -8.0392066717232522e-02  -8.0728983708451302e-02  -3.0584740796858523e-02  -2.9451416828032699e-02  -2.8884473512800796e-02  -2.8560962139084808e-02  -1.7010007214273398e-02  -6.4750433520932418e-02  -1.2721564747346370e-02  -6.9712546756344362e-02  -2.0517038787732943e-02  -7.7935302088829719e-02  -2.4793634369400824e-02  -8.1095030750291799e-02  -2.0267420498661991e-02  -7.6099528782782519e-02  9.9750090389891266e-01  7.1090629486497595e-02  6.8089614149864267e-02  6.9634602415030597e-02  6.2045696413027825e-02  6.0627390938730333e-02  5.1682537259921162e-02  4.9011368132300004e-02  3.9113119585494925e-02  3.9216911310375614e-02  1.0587361299732594e+00  9.5421928904373876e-01  9.8163418427077920e-01  9.7018934089129150e-01  3.7573142878688078e-02  3.9002521052266897e-02  4.5885339042625636e-02  4.6957901487266127e-02  4.8535814639874789e-02  4.8082291799206305e-02  4.5236653193745799e-02  4.5744421989507136e-02  1.0228570277123590e+00  1.0373061352791300e+00  7.0045148123323880e-02  6.6351751186245950e-02  6.9491545952309774e-02  9.5248318160746337e-01  6.3764252668490992e-02  4.6994307057527801e-02  6.3076263049062109e-02  5.3853484448355235e-02  4.2319485444875592e-02  5.5525305550953773e-02  9.3951558727392914e-01  6.9748905489202359e-02  4.2297886323293107e-02  1.0676868747377848e+00  9.7950328961232647e-01  9.7641288477094945e-01  6.9395055551008472e-02  6.4705699103007844e-02  3.5323820797875112e-02  5.4532843228766753e-02  4.0919189882106792e-02  3.8735488818303729e-02  6.1094047814615783e-02  4.3741801972972998e-02  3.3274706795140087e-02  9.9263850462862058e-01  1.0764844452377300e+00  6.6264678346371134e-02  5.0112684006551923e-02  7.3073606154374901e-02  6.7550896194972024e-02  3.8695822866520756e-02  1.0254224726756929e+00  6.4873521563150932e-02  4.0352574797673936e-02  7.4437213146869199e-02  4.5538555741129270e-02  4.2465857606269398e-02  4.3901998293347372e-02  5.7812656604076876e-02  5.2692073597867720e-02  5.7736456537270289e-02  5.7672426668380398e-02  4.6496982698475679e-02  4.8851345258931159e-02  6.4220146987063589e-02  9.1599750352315090e-01  9.3692415318408917e-01  4.0451935390239786e-02  3.8794019132066732e-02  4.7321763162519057e-02  6.5598742411457203e-02  4.9205272185281312e-02  4.4792786292302871e-02  9.7370995638836511e-01  9.2694580139183613e-01  9.1946300078096410e-01  9.0525966261248736e-01  1.0685721609606493e+00  3.3248832425484071e-02  1.0254683486348706e+00  9.9606268069705728e-01  3.5334651222668767e-02  3.6415589341397443e-02  9.3200248604631031e-01  6.7686359355061954e-02  1.0182966195270076e+00  6.7497693350538041e-02  5.8641379095115971e-02  3.2920930656333600e-02  6.6055098635760409e-02  5.6600074871977726e-02  6.3690737789228707e-02  8.1338782991806205e-02  6.2349881928994377e-02  6.3280830600256299e-02  9.9860877232131795e-01  4.1255384088711239e-02  3.9053282636043220e-02  3.9848483739694136e-02  6.5478157193060285e-02  4.1380438678482699e-02  4.1445933323461671e-02  1.0002537865759518e+00  6.4515431373648152e-02  6.1982189720175995e-02  3.8077827867965139e-02  5.5589174466646157e-02  5.1480370952109521e-02  3.7699638203862573e-02  4.7296874521404415e-02  7.6241527071311987e-02  5.3936826640197950e-02  6.6854840046472699e-02  8.7338787924303929e-01  1.0239654325490457e+00  1.0018614084965647e+00  1.0677471663511280e+00  5.7419676311435089e-02  4.1374312511478682e-02  1.2911889352140341e-01  1.0741240220164455e-01  1.0469592844156748e+00  4.8369999426211133e-02  8.7522431356457009e-01  2.8747169093345615e-02  6.3960000580020368e-02  4.7171473376042682e-02  4.2480789543358717e-02  7.0415851042593847e-02  6.8866313698424469e-02  4.3267198246303498e-02  9.6363313054326882e-01  9.5945310486805568e-01  3.4401127752190674e-02  3.3048927644518118e-02  9.5833273723353662e-01  7.1088316835315621e-02  6.9301467939857309e-02  6.3632220115729443e-02  4.2983339501156424e-02  3.5497589495104419e-02  3.5475325876830409e-02  8.6444256701603855e-02  6.3051740672157644e-02  9.7131629332417713e-01  1.0490750180930255e+00  9.9534490182759905e-01  3.5942799096960069e-02  4.6560694280174467e-02  6.4515283420411906e-02  5.6993258278515820e-02  5.3168251449199400e-02  5.6031783981613743e-02  5.1803681813986049e-02  7.0196690808754708e-02  6.8714174180798268e-02  8.6349455528773933e-01  3.5522804110865898e-02  8.6490506599256745e-01  1.0333225836881765e+00  3.0636364281912323e-02  9.5758765986687389e-01  6.0688692736402219e-02  3.8701038147222117e-02  6.6558615034029961e-02  3.9650320140694896e-02  2.9939975941221379e-02  1.3493421307487202e-01  7.0158298867115554e-02  4.4800376059685919e-02  4.4669312611446667e-02  9.7572430686627887e-01  6.3609394257449894e-02  1.2632198250697141e-01  1.0333219307481532e+00  1.2718869416527090e-01  3.0620802248492982e-02  1.2133806889653602e-01  8.6696210983177679e-01  5.0709405372803926e-02  9.3852762118485178e-01  4.7559688165235869e-02  5.4950759551383926e-02  5.9160583944217159e-02  3.4509283895452478e-02  1.0996407368724438e-01  6.9498996941861763e-02  2.7865644659036022e-02  9.5820853940911765e-01  4.3396232897267142e-02  6.1511069359343702e-02  3.2593925330440268e-02  1.2757656844771562e-01  1.2864399507475319e-01  3.5077355612634510e-02  5.9643809791543559e-02  5.7869162754382086e-02  4.3298719866789993e-02  4.6504498172347565e-02  5.5236456630316288e-02  3.5410465095048728e-02  1.3555400567200196e-01  3.5294484020489070e-02  1.1867399393049639e-01  1.0119883811033219e+00  2.8141996638429274e-02  7.0455343591101172e-02  5.6204215253157032e-02  6.4140195316971696e-02  4.2370189913693394e-02  1.0841223042678814e-01  1.0463094938597111e+00  5.9445140848462974e-02  5.1997820609832296e-02  4.8358159268110941e-02  6.4397912828075651e-02  6.2889552574427868e-02  7.0326160385378811e-02  1.0204739758111285e+00  3.5974284243508063e-02  8.5153587407935738e-01  4.4992034017386717e-02  8.8355637542357202e-01  1.0147788778416293e+00  6.9571013821861122e-02  6.5611068824478855e-02  3.9443249250776462e-02  4.3011129371767695e-02  3.8497586561689265e-02  5.8548750914620279e-02  8.3726489334740584e-01  1.0261544820297548e-01  1.2768100274490249e-01  3.8473444280982004e-02  1.1988542152838577e-01  3.7294283433989953e-02  1.2152200641307706e-01  3.8891672558180435e-02  3.3353134873518431e-02  5.2028588097433506e-02  4.6272775208933803e-02  4.1170338912676872e-02  4.9150972700342944e-02  2.8488907256528542e-02  9.9008593574846060e-01  4.6581158403068451e-02  4.6478795923098962e-02  3.7242189398758098e-02  4.0250441464545428e-02  1.1707137610635590e-01  4.8668702037687292e-02  9.0380456696446332e-01  6.2136953808929016e-02  9.4347154992240767e-01  4.5239655238949565e-02  5.3246033504133455e-02  6.3114384602000528e-02  1.0171437305257653e+00  9.8516383592288814e-01  3.8067674223639630e-02  1.3260304161072209e-01  1.0729853497588251e-01  1.1412620824042997e-01  1.3603796249537981e-01  1.3680930443368308e-01  9.8324426171893398e-01  9.8428311938779867e-01  6.2850721209402924e-02  9.6985014807893044e-01  1.0560030679858379e+00  2.9950406729085714e-02  3.2697647779125087e-02  6.7940692342628478e-02  9.8907732028475626e-01  9.8019095394667921e-01  1.0061206789003161e+00  1.0158555961431697e+00  1.0365145248352361e+00  4.1592357432538064e-02  7.8391803792227077e-01  7.9875151323427984e-01  1.3200869722221836e-01  1.0622312952912760e+00  3.5054964838159258e-02  4.0690429739901370e-02  9.6522255105254051e-01  6.7939754017865728e-02  4.8678199009105319e-02  1.0053930425581712e+00  4.2764168844086008e-02  7.8177518938445961e-02  4.1616214217202942e-02  1.3720547711001901e-01  4.5347882279747925e-02  5.0662863329542125e-02  3.7403445372058385e-02  1.4486675851866035e-01  1.4278790572298256e-01  5.3078508044170851e-02  4.6594113896151597e-02  4.5455787130132076e-02  3.7004506499621163e-02  4.6803621638085866e-02  9.8489482908184123e-01  2.5806257169090970e-02  3.6161589506370419e-02  6.9812701748338590e-02  4.0512772413969222e-02  1.3244263376187548e-01  8.0665851976673697e-01  1.1163858017269424e-01  1.0149484541580225e+00  1.0695067138289338e+00  4.7664433793771957e-02  3.6930368655110971e-02  6.8320955843029843e-02  3.7572558882509870e-02  6.6381470746236682e-02  6.8119996470304686e-02  -4.2229866439085417e-03  9.6390247775326732e-01  9.4341035126770856e-01  8.8749278263741138e-01  9.4487427125177093e-01  7.8823534414412011e-01  9.1475021797557354e-01  3.8761980636608864e-02  3.2350064081627064e-02  5.3957553297891793e-02  1.0514893921201003e+00  1.5651967397163732e-01  3.4921346578055068e-02  4.3211451773729370e-02  5.3300189100415452e-02  4.5153980850920830e-02  3.6627303694275776e-02  6.3181074826892711e-02  4.9892303841690251e-02  4.6722178088402379e-02  9.6412525640483171e-01  3.5695714590688848e-02  9.4912393598878797e-01  5.9513484411287752e-02  4.3769071530734845e-02  4.7368028007843711e-02  1.5820010217571651e-01  1.4722307507392224e-01  1.5120248269624817e-01  7.7730865796233964e-02  9.0890817315597927e-01  4.6456963391843027e-02  3.7776585731694082e-02  5.8580831069835707e-02  5.6304482952539616e-03  3.2393352052577262e-02  7.8584446119150464e-01  7.7177208956934529e-01  6.9911925142131501e-02  4.7171148949298837e-02  4.7852114845911987e-02  4.6303886056407277e-02  6.1729636070822956e-02  6.1227786063220088e-02  9.4108715499786666e-01  4.2237837596980222e-02  7.6348206678628650e-01  6.8010194469785248e-02  3.6839074655249583e-02  4.5478347989363226e-02  4.6750942546836927e-02  3.5607863684142989e-02  3.5172568412516876e-02  3.0824854663722281e-02  4.2953765947742771e-02  9.4770139345995252e-01  7.0051814524213288e-02  3.8030614363029923e-02  1.0346742968823051e+00  8.0168539480527401e-01  3.1159871635986471e-02  2.7086810965295773e-02  1.2622906286540736e-01  4.2279184774255955e-02  4.2950054176735024e-02  5.2125161144704342e-02  5.2437171206862025e-02  7.6099989850449323e-01  2.8256473212667114e-02  1.4348627859485997e-02  6.4243897463993324e-02  2.8010997312841530e-02  4.5761067609788902e-02  9.5870314377189025e-01  9.4007372228752806e-01  9.8176046545004869e-01  5.7853007104440100e-02  9.5551374177934145e-01  2.6869874100316243e-02  4.4426297929584642e-02  3.7529868125714419e-02  1.2568185377328908e-01  1.3354164402124792e-03  4.4719154961361765e-02  1.0760229788274538e+00  6.0830138701867015e-02  1.4560361528926435e-01  5.3735325370862883e-02  4.7985810546825845e-02  2.8742270754122435e-02  5.0703944502270067e-02  1.3525619408379200e-01  6.6128719010538253e-02  7.9107365440959765e-01  1.0396039117862486e+00  9.1721064440123357e-01  4.0424063042284381e-02  3.9324964947075068e-02  2.5769242965196549e-02  1.5654581127898931e-01  1.4946963571501751e-01  2.6067782039395162e-02  9.8854947600787613e-01  6.5722502304346814e-02  1.2077070469052134e-01  5.8350280121943474e-02  2.9333127882462000e-02  1.6398721933861302e-01  1.5905017931157325e-01  1.3152485679939196e-01  5.9427615179874896e-02  6.4615187982379488e-02  2.6138401648953327e-02  3.7012701972847790e-02  6.8141010980453234e-02  5.8123561134148863e-02  3.2690869843352705e-02  2.3488919528007888e-02  6.4951017860938362e-02  6.4023728876911337e-02  8.2347986769115356e-01  3.3445261272354747e-02  1.0701122613358660e-01  1.0409983556249929e+00  9.9257544433822220e-01  3.4913788449824658e-02  6.8304607853943586e-02  7.5450031948822716e-01  7.4497270987877326e-02  4.5126317068190910e-02  4.6581100523213931e-02  3.5705140069250345e-02  4.0679017576022117e-02  7.0147907030043463e-02  8.7955990605523421e-03  5.8431111792802290e-02  9.6600341933935874e-01  3.4162441349439243e-02  6.8175569367994640e-02  5.4845913088439176e-02  1.0119870891467864e+00  5.0206772298975619e-02  4.2123437870426786e-02  1.3197958469097379e-01  4.7218341646959025e-02  5.9459657494071970e-02  1.0423416141399227e+00  1.7795776353887904e-01  5.6372272449918354e-02  1.7364313966516418e-01  7.9412455173411195e-02  7.2217625189256743e-02  3.5175674581250371e-02  3.8449455103634629e-02  1.2084124048982965e-02  7.0757083924328473e-02  4.1404479777250980e-02  1.7852760627946756e-02  3.9608161172430295e-02  5.3302641246242788e-02  3.3526258287438028e-02  3.4270716964127264e-02  4.1947872463221465e-02  7.1135059288060062e-02  5.6208399542515809e-02  5.6183574119194765e-02  5.9690635306590641e-02  1.7221548965555941e-01  9.0387527624592134e-01  4.2488741510834226e-02  5.2070828637087813e-02  6.4674025361454751e-02  4.6581836930357036e-02  3.7867918410925960e-02  4.8190884858654463e-02  5.5868315855246820e-02  6.8228350441397564e-02  8.1483028563837223e-01  1.0036870851263775e+00  4.3451787851893194e-02  6.0364298659830930e-02  7.1707938363114521e-01  1.0338625699443409e+00  8.8282986996646529e-01  8.1044627012273485e-01  3.1656718368999477e-02  4.3253186744079873e-02  5.0991001946272242e-02  4.1912742496322979e-02  8.7475447193450362e-01  1.5451650041941775e-01  5.4404096393363070e-02  1.6813988206785407e-01  3.4890794113576519e-02  6.4830789408083955e-02  9.6323665271834580e-01  9.9064869736691719e-01  4.4618553536925544e-02  1.9094938263154247e-02  1.6784703792881872e-01  3.1409749718308705e-02  1.4057244670722380e-02  4.4852898335009814e-02  4.5707962592742395e-02  6.8557854205829771e-02  3.2699271202018682e-02  4.8264842923472266e-02  4.7505155983978878e-02  3.0663191540239686e-02  1.0199416804014916e+00  6.9899984839454615e-02  7.0664251204561976e-02  3.6449076755364851e-02  2.1246093477914348e-02  3.6224296708846367e-02  9.6850507170804812e-01  6.3503687543271639e-02  5.9064508083789345e-02  5.7485343080873393e-02  8.5170129155590768e-01  1.0553249988087270e+00  7.1185106147445568e-02  9.7324787946623648e-01  7.1597141694843811e-02  7.2555657168484444e-02  7.1264017932688814e-02  4.8647063704351061e-02  7.2143775456748449e-01  1.0394922977629439e+00  7.1536988079986907e-01  4.2885506219233892e-02  3.7586685026904841e-02  9.0428433815128850e-01  7.0150547873466040e-01  6.7137843032038291e-02  8.0144607869568160e-02  4.7933448137800476e-02  3.5364163214913938e-02  4.3255260204322743e-02  9.6180842475752704e-01  3.7259957420695676e-02  9.0524991685040779e-01  1.9197137570990913e-01  4.9673004144507246e-02  1.2399294016847083e-02  4.0611955160619946e-02  4.2518272596234266e-02  4.6330555934118951e-02  4.7832112334593363e-02  9.9436292641006907e-01  9.5978040798865838e-01  5.7148989132300890e-02  1.0036175065180390e+00  -5.6300539519057655e-03  1.9711983798557604e-02  2.3081304793410369e-02  9.4971167095108319e-03  1.5719122624098261e-02  2.7324825604763341e-02  1.7832083436967048e-02  2.6222297559485720e-02  4.6432385241162069e-02  2.3038213675265203e-02  2.0767278744843444e-02  2.2108527835565984e-02  1.0804517424261565e-02  2.6596783232777175e-02  -3.0279431057537117e-03  1.8450099084772894e-03  7.3249405867496778e-03  1.6968313380253223e-02  1.3403190416466728e-02  4.0431415965785179e-02  2.3623195901274333e-02  2.3290824054167488e-02  2.3745954242470731e-02  2.3663717890490116e-02  5.0214216748011881e-02  2.6386397126098058e-02  2.3430801761312795e-02  1.7580168650971669e-02  1.8438156828005699e-02  2.0874620514734574e-02  1.4170529301167325e-02  2.2496784774431667e-02  2.2524807562821998e-02  1.1643992487943594e-02  1.7726883396635057e-02  1.7177218273888857e-02  6.2685916864540558e-02  4.1645124244016243e-02  5.7358166215425666e-02  4.1551838950202404e-02  7.1606584328080602e-01  1.0783741293181150e+00  3.1931707366963456e-02  5.0901950456503899e-02  </DataArray> 
</PointData> 
</Piece>
</UnstructuredGrid>
</VTKFile>