<?xml version="1.0"?>
<VTKFile type="UnstructuredGrid"  version="0.1"  >
<UnstructuredGrid>
<Piece  NumberOfPoints="1500" NumberOfCells="2830">
<Points>
<DataArray  type="Float64"  NumberOfComponents="3"  format="ascii">-0.9927044598295816 0.3026309998790867 0  -0.9879241728256105 0.191971100732743 0  -0.970452713468092 0.08228904817948585 0  -0.9408141597574979 -0.02485307985588213 0  -0.8985682087297772 -0.129194999841047 0  -0.8447132725041525 -0.2280466566332142 0  -0.7805559601690174 -0.3190160675611796 0  -0.7062957276840304 -0.4025950726757179 0  -0.6258606629777062 -0.4750918774821037 0  -0.5420596403041027 -0.5359836388930799 0  -0.4563236181724493 -0.5858680632622406 0  -0.3688772664092804 -0.6259733123372468 0  -0.2784514225551338 -0.6573280891456857 0  -0.1867519660587807 -0.6795256787701693 0  -0.09412199227429367 -0.6929607069417075 0  -0.006472752624943198 -0.6973438008698937 0  0.0770893535279967 -0.6938238470541601 0  0.1684236525688568 -0.6811854391807981 0  0.2618625714614737 -0.6591330648678653 0  0.3527713230620681 -0.6282339405847277 0  0.4401935071840463 -0.5888050888809657 0  0.5238594308411836 -0.5409430196276078 0  0.6054581705725625 -0.4829396669406322 0  0.6850408024184291 -0.4131119407451816 0  0.7585658098867695 -0.3332348884812813 0  0.8241068248845437 -0.2441312392402445 0  0.8801899187769004 -0.1465335445397227 0  0.9248087107084135 -0.0429219934373614 0  0.9567232906599885 0.0632972475426455 0  0.9765490023255566 0.1736272405840691 0  0.9836221606664508 0.2847535817381469 0  0.9779561191428928 0.3951478525778214 0  0.9599709607027652 0.5037566155271531 0  0.929632793938077 0.6103451904394368 0  0.8874468410357709 0.7126021072090151 0  0.8345314820788536 0.8085511897688981 0  0.7710243050751128 0.898223100575282 0  0.6977199952519938 0.9803189183001755 0  0.6159050922787934 1.053268333381165 0  0.5261940551199935 1.117094194768243 0  0.430109193546783 1.170477217109222 0  0.3287079822568003 1.212672671722007 0  0.222648248356096 1.243692487877815 0  0.1138360206034695 1.262677863724181 0  0.004671751975433329 1.269695385609567 0  -0.1047939852088967 1.26457484325027 0  -0.2138870356265115 1.24742276048464 0  -0.3205945302604239 1.218118808802949 0  -0.4229628141998941 1.177339238449851 0  -0.5197143512647338 1.125636706852507 0  -0.6098602265310007 1.063886239682895 0  -0.6934990015443977 0.9918328096476442 0  -0.7680136147699633 0.9114596584909576 0  -0.8331376451033596 0.8233576462952557 0  -0.8881896270087692 0.7283342828224004 0  -0.9322744456107577 0.6268978248540659 0  -0.9646967709554487 0.5213306953799441 0  -0.9849540666846803 0.4126326081663672 0  2.740817819293897 9.083709129479828e-07 0  2.733165522104062 0.2048218764035026 0  2.710219101652364 0.4085030811732525 0  2.672110625296887 0.6098872733021767 0  2.619061224953093 0.8078728669367344 0  2.551365407692471 1.001337063885232 0  2.469388918556713 1.189194115927475 0  2.373625321032247 1.370418399132664 0  2.264583414490562 1.543966704895787 0  2.142866089860455 1.708879897116369 0  2.009174965600542 1.86423411552712 0  1.864231449297753 2.009160573138981 0  1.708886261866947 2.142862867610353 0  1.543961068357746 2.264571276233672 0  1.370416150926955 2.373629181848703 0  1.18920415912134 2.469403140884394 0  1.001340962894256 2.551370195959578 0  0.8078754795074743 2.619063326745939 0  0.6098881835417183 2.672114970447361 0  0.4085058503008308 2.710219203831216 0  0.2048212124494825 2.733167991160034 0  2.986277701398754e-06 2.740832194326828 0  -0.2048172594549943 2.733167840212574 0  -0.4084985713260926 2.710208664029389 0  -0.6098927711325329 2.672115688430218 0  -0.8078701630337518 2.619053232922952 0  -1.001340914789187 2.55136738993385 0  -1.189199932488486 2.469404921361757 0  -1.370417038579071 2.373630616292829 0  -1.543959693119563 2.264572068818552 0  -1.708874376753375 2.142858317260536 0  -1.864232696888244 2.009161067240432 0  -2.009174341875721 1.864235851320454 0  -2.142864760430514 1.708883343211439 0  -2.264577396711709 1.543965706292974 0  -2.373627715334461 1.370417663244596 0  -2.469405778458025 1.189194572307007 0  -2.551365414585891 1.001336241705012 0  -2.619061870091786 0.8078735716603921 0  -2.672109250052724 0.6098956120019801 0  -2.71021644989701 0.4084948830128978 0  -2.733164642577354 0.2048221771149362 0  -2.740818099855 -4.471116318393539e-07 0  -2.733164106720797 -0.2048262794721694 0  -2.710216342163918 -0.4084981358987355 0  -2.672108789835584 -0.6098975064769001 0  -2.619060056738162 -0.8078767643086067 0  -2.551367949672937 -1.001331210769668 0  -2.469398918207568 -1.189204480622972 0  -2.373629004788899 -1.370411073702981 0  -2.264578872833432 -1.543964203375069 0  -2.142855411939058 -1.708871963187217 0  -2.009160213265245 -1.864229507333694 0  -1.864232022888423 -2.009161632199097 0  -1.708871493600639 -2.142856351306416 0  -1.54395756828361 -2.264570746797338 0  -1.370418954695318 -2.373626934327994 0  -1.189195462293581 -2.469392630645936 0  -1.001335428299924 -2.551368850938986 0  -0.8078803663279208 -2.619060972500705 0  -0.6098861321383192 -2.672112825490998 0  -0.4085004476559668 -2.710222170969577 0  -0.2048203433724995 -2.733164457711814 0  -2.24337941090824e-06 -2.74083087698326 0  0.2048252815092351 -2.733167527760601 0  0.4084964226538882 -2.710205962144851 0  0.6098905603734127 -2.672101733829709 0  0.8078777306080827 -2.619062851982846 0  1.001336388747877 -2.551367521342059 0  1.189192687268051 -2.46940808903732 0  1.370408156848829 -2.373618087493607 0  1.54395813184105 -2.26456954904364 0  1.7088730734232 -2.142858306820961 0  1.864238293580159 -2.009171439561385 0  2.009170196875858 -1.864236604532697 0  2.142868594555784 -1.708881100440055 0  2.264579105737013 -1.54396370940499 0  2.373630479666037 -1.370409779495786 0  2.469400945424187 -1.189202256922302 0  2.55136921247517 -1.001337333239872 0  2.619061192099682 -0.8078672393068389 0  2.672111657367588 -0.6098861868679639 0  2.710215446487303 -0.4085037521862219 0  2.733150739361932 -0.2048225376750595 0  0.08826426172622735 -1.7169682045687 0  -0.006368845691958658 0.2952013042875597 0  -0.9194510466889821 -1.482868592813892 0  1.013218494651492 -1.424576337988053 0  1.644437936062545 -0.727619280700931 0  -1.645875061955951 -0.7305665581818711 0  1.858262391243245 0.1961578264948441 0  -1.863453782558279 0.1960128090972987 0  1.650032193434219 1.000899822572249 0  -1.646588803046022 1.018400977062961 0  1.158659457921682 1.599460919695359 0  -1.140373636836247 1.615831549015164 0  0.4806188228483839 1.942035135326892 0  -0.4594342446517877 1.948082593117256 0  -0.5141082314422607 -2.006492801455809 0  0.6860219712589423 -1.979349200498666 0  -1.587239184270486 -1.370948281262557 0  1.62485000026263 -1.401852926617916 0  2.132941332686058 -0.4092925205286183 0  -2.133154014529696 -0.410402429404131 0  -0.2469380631050336 -1.260147214307356 0  0.4276984864110131 -1.247546067458798 0  -0.9859659251022388 -0.9269162312827244 0  0.9297268028691709 -0.90995596242651 0  -1.024378098097084 -1.98824402314124 0  -0.05125132310207453 -2.227368912350636 0  0.4741547194759005 0.4327935161833888 0  -0.5052985697796616 0.2804716789652683 0  1.186904177641566 -1.905405267149239 0  0.3358242304161265 -0.04896139875277439 0  0.1030275320790546 0.7721024997025887 0  -0.2207467640001853 -0.1317172492664539 0  -1.466074937283983 -0.2120974727650656 0  -2.085872027948133 0.7020374716803311 0  1.458610360158437 -0.2105807716847703 0  2.097906372230455 0.7240261299451214 0  1.987696357491858 -1.080289050392399 0  -1.981905736681407 -1.088927671680826 0  0.01214546795902674 2.208259720120793 0  -0.03809174752044265 1.735933659554831 0  1.6523787234119 1.511388241984946 0  -1.635543377509427 1.52935510439682 0  -1.483150155551231 0.5259877438303024 0  1.472727818595195 0.5156151929991244 0  2.28575903156411 0.02053470275285053 0  -0.9156101142277716 2.085810554597509 0  -2.287416709698185 0.01749785993901119 0  1.159719954940412 -0.5417300625793149 0  0.9204321011228476 2.095336862853343 0  -1.221118219601896 -0.5705438653545631 0  1.193799165330182 1.119410884408862 0  -1.163778658861226 1.147118031523789 0  -1.302897295568312 -1.677123724579476 0  -0.6393237413662975 -1.157617578439055 0  1.355960411948419 -1.050593611276577 0  0.7053085494105091 1.537554638926209 0  -0.677022414237055 1.547456146623614 0  1.990749603538678 1.241438254350916 0  -0.3690060261230645 0.7039783374287629 0  -2.051985453725967 1.114728821439629 0  0.3766958595841641 -2.28035354324063 0  -1.440726285366901 1.867883360479721 0  -0.5216066035928973 -1.585209329377862 0  1.45969561758477 1.850405603278602 0  0.4435530691517385 2.329998182447775 0  -0.4433930335192499 2.333660345852022 0  0.6548793843977154 -1.580693987998251 0  -1.479415593098933 0.1543865867690648 0  0.3387250613972556 1.594576326596603 0  1.479384540422029 0.1501849421419875 0  2.322919119671177 0.4088040739247729 0  -2.232176320805097 -0.7840985868539886 0  -1.214861867315005 -1.242870204861658 0  0.07823053025143617 -1.08874814101654 0  -2.194468569523816 0.3616909571485137 0  -0.3917183224781422 -2.350833019389946 0  -1.33425793431501 0.8404270859195242 0  0.9607320751136519 -2.206174727577115 0  0.0680855729086753 -0.3027555345644507 0  -1.7020567874484 -1.703232280725547 0  2.234079254804729 -0.7812856103953213 0  1.551481652042208 -1.804437903475375 0  1.76704382884372 -0.3996179859325537 0  -1.769141586555853 -0.4047735679085919 0  -0.783264958474246 -2.259237028923027 0  -1.337402287096942 -0.8927252740524427 0  1.968649057525496 -0.1171895487882686 0  -1.969982105314843 -0.1183937533247395 0  -0.1888875913977527 -1.911057007204323 0  1.240862510850634 0.7697568050428525 0  -0.3353869252349023 1.564688315410204 0  0.6270284131191616 0.1170913654923982 0  1.961765712781935 -1.411763102202209 0  -0.5515873763688374 -0.06395843184664325 0  0.4070929831009981 -1.789828409355869 0  -1.93529588657452 -1.432920624428407 0  -1.650600564632347 -1.053330086527911 0  1.3279079393355
[...]
<PointData  Scalars="f_4841-1"> 
<DataArray  type="Float64"  Name="f_4841-1"  format="ascii">3.4012444404172093e-01  3.3581155642030730e-01  3.4252611011198447e-01  3.4764394970168533e-01  3.2911947081193793e-01  3.4014635831182088e-01  3.3118029608790372e-01  3.4386499796232617e-01  3.9777363587303211e-01  4.1555205562802949e-01  4.2862486451786808e-01  4.0983266823314818e-01  4.4135195026748758e-01  4.1291711009155802e-01  3.8670246186358165e-01  2.4879260449309190e-01  3.4548138969240988e-01  3.9912519306444849e-01  4.3930143761796642e-01  4.4917583623947382e-01  4.2542909241087534e-01  4.3543293763507207e-01  4.1351651302204823e-01  3.7270082495397072e-01  3.3258352382494516e-01  3.3835760588605152e-01  3.3716148605849050e-01  3.2852052105198415e-01  3.3225319234993972e-01  3.4157648553144909e-01  3.5077542747170953e-01  3.3573894016789035e-01  3.4780827760185296e-01  3.5107169463438187e-01  3.5400958819459988e-01  3.5418562110817720e-01  3.4606111440532489e-01  3.6334296326120047e-01  3.4770378075708441e-01  3.5529501598042867e-01  3.6351867208982697e-01  3.5621055902182364e-01  3.5913206700694866e-01  3.5918201159199720e-01  3.5520837273173944e-01  3.5698920540236323e-01  3.7405806919014106e-01  3.5841252170836191e-01  3.5591968965591075e-01  3.5054331279678591e-01  3.5573247954383408e-01  3.6200639467589962e-01  3.5097872030007810e-01  3.5751985032797773e-01  3.5832325189940945e-01  3.4896644542189692e-01  3.4446307410951782e-01  3.5216580233532779e-01  -8.8800248488063130e-02  -3.4681772225611703e-02  -2.0728061612366157e-02  -4.2061167341542756e-02  -3.7143751447305168e-02  -3.3452195418355070e-02  -9.9693024835024235e-02  -3.7209228913958295e-02  -1.3691965264398870e-02  -3.5636443586561477e-02  -2.6083871813727760e-02  -8.2542560088746747e-02  -1.9662555263991705e-02  -7.2699397321155088e-02  -2.1999163137485418e-02  -2.5749067732168483e-02  -6.3229307279764960e-03  -2.0753791745573687e-02  -2.2263621807972082e-02  -2.0503095976058115e-02  -1.7137677344859523e-02  -2.2717309871106258e-02  -2.5653694537156241e-02  -6.8742712907150644e-02  -2.0868263457669073e-03  -7.3733371346348400e-02  -2.1065178375560965e-02  -2.4539650795851072e-02  -9.5286185766313841e-03  -7.3456923955608447e-02  -7.7493851527597718e-02  -7.8138922224764124e-02  -2.4173916627065743e-02  -3.1080845588677540e-02  -3.4771184697498417e-02  -3.0644772658466927e-02  -3.7060861668011459e-02  -3.5463084061757778e-02  -3.1128931618555029e-02  -4.1642400485404726e-02  -3.6292876570036915e-02  -3.1977192991298364e-02  -8.8380850172390973e-02  -3.9647136739904720e-02  -3.4776816531972232e-02  -4.1555138723432944e-02  -4.1941890670755252e-02  -3.7415488091017565e-02  -4.0826014978544108e-02  -4.2979287728000734e-02  -3.3194011626144264e-02  -9.3271225934629109e-02  -8.9519570666411974e-02  -7.8638801688732815e-02  -9.1497866623163532e-02  -8.3082581223015636e-02  -2.2840570077632454e-02  -8.2678178650749834e-02  -2.1794209273253887e-02  -3.0493736545918582e-02  -3.2762885298376634e-02  -1.0626313622690642e-02  -4.1295909125665282e-02  -2.4993726319617122e-02  -1.6247323533176906e-02  -8.2652851857136306e-02  -7.7142316601857386e-02  -2.2323486021850098e-02  -3.0711293344005863e-02  -3.1904779156420975e-02  -8.5772238644366339e-02  -8.4257822434267424e-02  -8.0749978342939233e-02  -2.4206945943393850e-02  -3.3344632121506561e-02  -1.7869372081818369e-02  -3.2446030843028523e-02  -3.7268434293367313e-02  -4.1079022940150221e-02  -2.0049631174088995e-02  -4.2341304613178636e-02  -3.9287489403777485e-02  -3.5101351494058408e-02  -1.0048627574482313e-01  4.1123447277659778e-02  7.8957507019429962e-01  4.0683462000528720e-02  4.2142603484188301e-02  3.4616598527272661e-02  3.3650134930452699e-02  3.2526440291866181e-02  3.3028509169772208e-02  3.8384895924721614e-02  3.9992603941357008e-02  4.5742978256137108e-02  4.7292910921793024e-02  5.1612232175061987e-02  5.2423142249113014e-02  4.2640096213318851e-02  4.3394349562262215e-02  3.7374863282508282e-02  3.8538804815876557e-02  3.1377040242433651e-02  3.1085089602763186e-02  2.0620096945715802e-02  3.0393289394182142e-02  3.8812362327618019e-02  4.2646579167504160e-02  4.0559435435637142e-02  4.1971203409982533e-02  7.7429823393327701e-01  7.7792859920305291e-01  4.1425127698562290e-02  8.0606355954150899e-01  7.6879933243412479e-01  8.0982083269333482e-01  2.8045379262238313e-02  3.4808289428451260e-02  2.8625988688144113e-02  3.3716829767227972e-02  3.3724835973814635e-02  3.2649263960727398e-02  5.2033002290859984e-02  5.2756852113221141e-02  4.0602414272384965e-02  4.2323446493177833e-02  3.3667796817941902e-02  3.2771810640054223e-02  2.9923831309620213e-02  4.8715957532858963e-02  3.0203264141034612e-02  2.8525245721555622e-02  4.7528847260013059e-02  2.9570677763444370e-02  4.0466020854585616e-02  4.3176693760052537e-02  3.9923506146466572e-02  3.7540585341663511e-02  3.8864183978400704e-02  4.7635816340987736e-02  4.8634083774629418e-02  3.5621375238893853e-02  7.6779289938698370e-01  3.6129972100078546e-02  4.1256319791665719e-02  4.3602299752592756e-02  3.9818774637173190e-02  4.2061600241829152e-02  4.9063427646450532e-02  4.9486304789572721e-02  4.2153303868863790e-02  2.9029520680590115e-02  5.4062192813159986e-02  2.7494939572995983e-02  2.9786260460502447e-02  2.9453675006783624e-02  3.9286280302754363e-02  -6.7933103141670824e-03  3.2355662805253343e-02  3.9486314120044275e-02  3.7238031499775566e-02  3.9465252190312834e-02  8.1347777199324434e-01  3.4670863058056098e-02  2.9829250678367954e-02  3.7875857075191199e-02  3.2459642275924988e-02  3.2076149322657142e-02  3.8800253622937667e-02  3.5774087454200298e-02  3.2046046155509218e-02  3.2113466445402944e-02  4.2994104636187490e-02  3.1085352034612566e-02  4.9486109195157182e-02  7.7461504229319822e-01  3.2250044107541558e-02  7.8544736003214655e-01  4.3154618871205211e-02  3.2447659187614400e-02  3.5680562517900215e-02  4.1320031965160466e-02  3.7634607652475192e-02  4.0041410661437210e-02  3.5590177550750737e-02  7.6182611804067224e-01  3.6711612664030231e-02  7.7740676523991459e-01  2.7206903998267012e-02  2.6171376747191197e-02  4.8028256012191191e-02  4.2190648803777965e-02  4.9776992528948807e-02  4.0831057251465915e-02  3.7056549793861582e-02  4.3451746142747924e-02  2.8402729355735387e-02  3.6930201976978418e-02  4.3354434283583584e-02  4.0771843707254077e-02  3.5576371407761820e-02  5.7696857169479004e-02  2.8947489246119795e-02  3.6780010057830735e-02  4.2975401894915222e-02  4.3268360950487708e-02  4.2848050955476946e-02  3.1903215889638854e-02  3.7829205690449556e-02  4.8426958294918498e-02  7.5822542424526784e-01  5.0776322665734216e-02  2.9411180148291128e-02  3.3702314583739817e-02  7.5871958417244201e-01  3.2457094596358795e-02  3.3279032337163048e-02  4.7968665322634177e-02  4.3780328639432715e-02  3.3871160080116099e-02  4.0072210048086934e-02  3.7952273054568768e-02  2.7408414364416451e-02  3.1384098611747714e-02  7.8017061359979156e-01  4.8967431243397433e-02  3.1070789893490196e-02  3.1778289098101153e-02  3.1258637201023676e-02  3.6275107722354268e-02  5.2540011931946094e-02  4.8013332527377488e-02  3.0977717633306128e-02  2.7009396414521915e-02  3.1315002406613397e-02  2.9928906882986113e-02  4.0860303052415288e-02  3.5418535444275659e-02  3.4570635620512803e-02  2.6108505740030302e-02  4.5796528765776591e-02  3.8233429609838422e-02  8.4918836702699918e-01  3.7543731576788947e-02  8.5064167089778964e-01  5.0550412693440488e-02  4.5707647072067301e-02  5.2413860340049419e-02  3.4029049117781984e-02  3.4736765469491886e-02  3.7405241464974322e-02  2.7694088075837179e-02  3.9184609200457410e-02  3.5916588062246291e-02  5.2055579144016706e-02  4.1286630970145281e-02  7.9378858918814377e-01  7.8906556821033125e-01  7.4710886534552634e-01  7.5029430238025097e-01  3.5158855785466077e-02  4.1449029983885159e-02  7.5171522138165192e-01  7.7314739339018568e-01  8.4081839342072173e-01  4.8903399755451923e-02  3.4168149277026265e-02  7.4444973046712415e-01  3.3416910481213431e-02  3.3121411486659369e-02  4.0820570817458456e-02  3.6278179383698601e-02  7.8338957273803400e-01  4.0270971600342043e-02  3.6159690927206396e-02  8.9104513568054738e-03  7.7790788091465812e-01  4.5110273571763115e-02  4.0465049518379897e-02  2.7450730017360755e-02  4.9699795819060776e-02  5.9184648071156275e-02  2.7177032025628836e-02  3.2024831868364100e-02  4.1966751745200842e-02  2.7396738984896148e-02  3.3815741298280869e-02  3.7193004358591457e-02  4.6342185784409254e-02  2.5050029974796731e-02  4.4119665070519676e-02  4.3448278262934355e-02  3.8612501553993893e-02  4.6745956777495615e-02  4.2666017321295324e-02  4.2422156630008499e-02  4.3586186071862112e-02  4.1938997048931899e-02  4.4125820546586481e-02  4.5195015387870484e-02  3.7649801117709221e-02  4.3224827540177840e-02  3.5005990071491057e-02  2.9641627000508302e-02  5.3091378730327377e-02  5.2953443807234629e-02  4.7901791496732703e-02  4.9892710136664992e-02  4.1086586452849905e-02  4.6155330454398395e-02  7.2829464712931524e-01  3.6984038162005538e-02  6.3723249076362870e-02  3.7949495695067524e-02  3.6299562470540545e-02  3.0756588077808979e-02  2.5004693238611712e-02  5.0229223485886938e-02  2.5242871886644678e-02  3.2370360509615080e-02  3.0817553597790096e-02  7.7306137817782716e-01  3.6190887885726428e-02  3.5978395733738566e-02  7.1816474032454211e-02  5.1557341677591823e-02  7.0542777413469857e-02  7.7014840582119604e-01  3.2690452497133524e-02  3.6559143968639865e-02  4.6725284041880186e-02  3.8155990851671040e-02  3.8413194741521765e-02  4.0450541166629640e-02  2.4687338774378179e-02  3.4089958763658251e-02  3.2985149237947618e-02  3.6613556394180131e-02  4.2289660808301599e-02  6.3975635894584257e-02  4.0812707426530398e-02  3.2867629446896411e-02  2.7230858889677467e-02  3.9157430326441749e-02  3.8165084313468725e-02  4.1285259649024679e-02  6.2365348890745555e-02  3.1353391185392099e-02  7.5867808571240969e-01  2.7872598133641492e-02  3.8641770333397142e-02  3.5778545786228119e-02  4.1977931795301376e-02  2.7868901498086414e-02  3.9071399455267455e-02  4.2621664507651098e-02  6.1113315400255976e-02  3.2024348674749736e-02  7.3045444103013801e-01  3.2089574113721042e-02  4.2366286610184219e-02  4.0114843108519156e-02  3.9045605922553170e-02  5.0038649835951216e-02  3.8796489903878510e-02  3.0092835070733678e-02  7.9172293446435038e-01  3.8520696151458568e-02  7.7235873542471334e-01  7.8675854672419288e-01  3.0232656552590487e-02  3.8010264540130373e-02  3.2015778560826970e-02  3.5411607405279530e-02  2.6347107582218632e-02  7.9026993339690021e-01  2.5494369695763883e-02  4.3099659129832518e-02  2.7124392038176907e-02  3.9975240743580817e-02  4.1680158475196426e-02  8.8969882094007124e-01  4.5328554998584569e-02  7.5854872961228625e-01  4.2739481524434721e-02  4.3583999713250249e-02  3.7463524960323312e-02  2.9291448515958812e-02  1.1131051708426539e-02  1.0137325476558774e-02  3.2115527423969094e-02  2.3089180670736283e-02  2.5290718588583689e-02  4.2217877255265365e-02  2.3400987658120438e-02  2.9889332367748309e-02  2.4132157333051667e-02  3.2073500317371210e-02  3.1355099048447785e-02  3.4715193501192433e-02  3.8547981910784596e-02  4.0971480452607789e-02  4.1979261504923385e-02  3.8889211726074312e-02  3.1221470405069198e-02  4.9402185284692923e-02  3.4331989293577017e-02  8.2262539092402509e-01  4.1608788608720110e-02  2.8846348132375903e-02  3.1116367597432606e-02  4.4670247681926019e-02  4.4168341538504387e-02  5.0926589784780076e-02  3.9361254033509249e-02  4.2464859697714241e-02  5.0409841405257519e-02  5.1649999668409448e-02  4.1520968836363630e-02  3.5888061712186656e-02  4.4831318551323614e-02  3.5137184069333194e-02  3.1202226863178965e-02  4.1023733011521540e-02  7.9636687308915932e-01  5.0307007108256765e-02  3.3215248984353046e-02  3.7849937562682075e-02  7.1595639487611518e-01  3.2651358334132442e-02  3.0779079781581651e-02  4.0647196626676749e-02  3.1116353853742756e-02  3.1798869055807304e-02  2.8243295234400702e-02  2.6530516863883760e-02  2.6361971171641553e-02  1.0079720536046051e-01  5.0785647720912930e-02  3.4371319952422437e-02  3.2151392725949905e-02  7.2338300053237814e-01  7.3591208598895796e-01  4.3086539923854437e-02  4.9556018523617164e-02  1.1502256269487483e-01  5.1735588219101687e-02  7.1296619886224588e-01  7.3007052804125694e-01  3.1283441439677692e-02  3.1119694347330126e-02  2.7297551731040471e-02  2.7945193306284765e-02  4.1153111192924391e-02  3.3050212866237598e-02  4.3628666326400181e-02  5.2826115162807621e-02  3.7480910819789437e-02  3.3170432526536016e-02  1.6629442980428746e-02  2.3738791007488127e-02  8.6276178092945369e-02  7.0846276122274021e-01  7.1313412604222637e-01  7.6081255150978733e-01  7.1851111395846246e-01  4.2655905603650859e-02  3.3420947139467840e-02  3.3800518255809160e-02  3.1444168292629082e-02  3.4473366064622028e-02  4.4082621935409495e-02  4.0977850645160664e-02  4.1596740690266316e-02  3.8728560396540268e-02  2.9935403050083215e-02  3.3432156027527284e-02  3.2371877104681070e-02  4.2948893977495808e-02  3.9722200365623239e-02  2.1596355251052444e-02  4.0197435107515771e-02  2.6002729963911189e-02  8.1288287431362169e-02  3.7142394159640983e-02  1.0012788028869835e-01  3.2489469860315305e-02  3.2141522496267547e-02  3.2045208935190882e-02  3.1758964309644928e-02  3.9958291303830426e-02  2.8739440187370353e-02  3.3708713912153535e-02  3.2151484881684185e-02  3.5247083415213126e-02  5.1538797559977895e-02  2.6104095209802135e-02  3.0972102751208756e-02  2.6098386980247114e-02  4.0618592082308898e-02  3.6145122929644606e-02  2.4944939222610815e-02  4.1678814083758307e-02  3.6414329771214192e-02  7.9177211637017075e-01  7.7408639221725661e-01  7.8420280761286565e-01  8.1119395994609755e-01  4.3934150347728011e-02  1.0578431950023963e-01  3.8524715760013428e-02  2.1930410370883235e-02  4.7648759065282639e-02  3.3845649213815041e-02  2.4415644990237462e-02  3.5124196736042806e-02  3.6957101351076764e-02  3.2136958507924591e-02  3.2414447261022050e-02  6.4615074658664631e-02  2.0100262543930502e-02  7.7478031269543268e-01  7.6728835607046675e-01  4.3039013424951561e-02  4.2920124193476503e-02  4.1577957294234504e-02  7.7370927189813821e-01  2.1609167406516205e-02  3.2432783918002139e-02  2.1253521335853485e-02  7.6747747151401702e-01  3.2077387319835622e-02  3.5029124513717334e-02  3.2446462466758620e-02  4.8225214489716950e-02  4.0246741134302266e-02  9.4452746377651373e-02  4.2819816906329002e-02  4.5914400857582666e-02  3.7219640355870907e-02  7.8218749639728136e-01  8.1832588036670462e-01  1.0741683919605714e-01  2.7662857836788859e-02  3.6131725381505844e-02  6.9148685374209984e-01  6.9301264250654104e-01  3.1379458326455917e-02  4.0158244284634402e-02  4.0009289321109219e-02  2.5514122486407480e-02  6.8071608736957978e-01  4.3716514933455700e-02  4.3002801644510855e-02  5.2945171888257113e-02  3.4885522840704702e-02  3.6906120462598113e-02  3.5494576672183330e-02  8.0259138044549205e-02  1.0969515548339138e-01  3.9669178177624519e-02  2.8662885273386771e-02  4.7710264984559804e-02  3.7011906730872540e-02  4.4129864849612462e-02  3.8498185824746511e-02  4.1229391186112581e-02  3.5088752863220683e-02  3.4527029290621979e-02  3.6529186213326459e-02  3.6565558508031726e-02  4.8602331335820328e-02  2.0296699187618193e-02  3.0079896489920394e-02  3.4269962208967268e-02  3.9236036174864396e-02  4.0437863955633556e-02  8.2971431174015453e-01  2.6212751952613536e-02  1.8032373024815668e-02  3.2687985750135790e-02  3.5938279570182440e-02  3.6349307978926070e-02  3.8392478439103345e-02  3.6938644909522582e-02  3.3214046258538625e-02  4.9049002816553146e-02  3.8536064559645873e-02  5.1207444764471088e-02  3.6806983911295263e-02  4.5763374698278132e-02  4.3059156501503514e-02  3.9724610482475727e-02  2.5839421278051309e-02  2.6973759125382097e-02  2.9659989539362906e-02  2.8737523471979456e-02  4.9057648442926031e-02  3.2097545699560803e-02  7.6809435138106813e-02  3.3721855017695021e-02  2.1035017723272573e-02  2.8717080698099980e-02  1.1113234466556671e-01  7.9638154740786227e-01  7.8688873071777554e-01  7.8694976355708413e-01  6.8015926226821788e-01  3.0958053934605757e-02  4.1887970366609441e-02  4.1665475812557924e-02  7.8424604880458315e-01  2.3859947912200509e-02  3.1556542706151727e-02  5.0101598758507976e-02  5.3111207987695468e-02  7.2858112627021396e-02  3.3852337714672921e-02  4.2822961475321018e-02  4.3007862792893245e-02  7.6329881107453512e-01  4.2408048096169999e-02  4.5836109755750962e-02  4.3246797068796659e-02  3.2150309073771297e-02  2.6810922558582917e-02  3.4796515738189211e-02  4.3500691806413951e-02  4.1479397405861894e-02  3.7977107759807262e-02  3.4390702022257261e-02  3.5544567713535327e-02  3.8008950067952275e-02  3.1801426973447657e-02  5.2935759401124272e-02  1.3807397541681676e-02  4.8809079135041566e-02  4.7077335844240148e-02  2.2065572395773614e-02  5.0610367225458461e-02  3.1574439802214256e-02  7.7000464640766209e-01  3.1174128155843091e-02  3.3442666952834911e-02  3.1850637875718721e-02  4.2496879854934798e-02  4.4250017273676973e-02  4.1739783418213695e-02  3.8958933885955137e-02  3.3595879008574574e-02  4.3418002932391273e-02  4.2715197550358651e-02  8.3507660297206451e-02  3.1129238808192725e-02  4.6884616337108782e-02  5.0780494656534454e-02  5.1498214059038788e-02  5.0347358298352768e-02  4.1641200273130063e-02  3.3054312741570495e-02  3.9738265995188642e-02  2.5679210653526897e-02  3.6427448933325050e-02  4.9758218281331749e-02  7.6176252087109841e-01  6.6447737841180110e-01  7.6575486515140245e-01  3.5126914042940063e-02  2.4837723410443741e-02  2.2290047978738559e-02  2.6956812850168009e-02  5.2147216123707985e-02  3.0990471658890364e-02  3.8930292386817694e-02  8.5168905104428094e-02  1.0025815893290289e-01  3.1275477774904879e-02  1.2522128475507804e-01  3.9182862190863046e-02  1.5356404953468924e-02  3.3472062335656173e-02  3.2861487792859030e-02  4.1067146099305375e-02  4.7833152285182867e-02  7.8602441038608217e-01  3.2918352407800694e-02  7.6860833979553222e-01  3.2335963607183285e-02  1.0673367590959378e-01  2.8588633792794360e-02  3.7872026961937554e-02  1.2926065284053123e-01  4.2329860329626087e-02  7.9675320486159884e-01  8.4118563536384749e-02  7.8326325779429873e-01  3.4664526858961930e-02  2.9750405429862750e-02  3.0366480220742339e-02  3.4103086738468943e-02  3.4447515515594065e-02  3.3976380404983304e-02  3.2215750594522904e-02  7.6823204487296948e-01  3.2040977834583102e-02  3.3924568759474992e-02  2.2481289903350091e-02  7.8113528243117214e-01  3.3813610487055945e-02  3.1370387732149757e-02  7.3339434440912865e-01  2.3015254279748876e-02  9.7305142495135055e-02  3.2120297774847685e-02  2.8411212619783858e-02  3.3555123159226860e-02  3.0285261682049293e-02  3.4465822711039609e-02  7.9584601316649761e-01  3.8964960350722930e-02  2.9725886678060691e-02  4.1176103172580594e-02  6.6279968973316361e-01  3.1747899668813855e-02  3.3292961871800607e-02  3.2122180101481754e-02  4.2827517808605650e-02  5.0767767353551721e-02  5.0174191119172915e-02  3.0287672548140718e-02  2.1234454923065683e-02  2.9822784981208023e-02  3.9476806729534374e-02  3.9158414412924308e-02  1.1610217043370716e-01  4.1833971556581681e-02  3.9669350465185660e-02  4.1627229830057726e-02  3.5514409250965079e-02  4.0545639009597539e-02  3.9201701448782211e-02  -8.7240651947355918e-03  3.7319497779045113e-02  1.7231027973448627e-03  2.5800737868755516e-02  3.0008061178871403e-02  2.8265910612231621e-02  4.0326110668855220e-02  2.9876534561513297e-02  3.6529132432729990e-02  2.9828544758569830e-02  9.7197628798001437e-02  2.8887346725873175e-02  8.1256819018036011e-02  2.2572366821733750e-02  2.3808481267651799e-02  4.6329512400549527e-02  4.4692441966597447e-02  4.5641639549324167e-02  2.4274392241399823e-02  4.7558031423859878e-02  9.2405565455415881e-02  4.8738180760239613e-02  -4.5737846567418935e-03  3.2777287815269188e-02  4.1890566897056461e-02  5.2321909857166726e-02  8.4842293537213009e-