<?xml version="1.0"?>
<VTKFile type="UnstructuredGrid"  version="0.1"  >
<UnstructuredGrid>
<Piece  NumberOfPoints="1025" NumberOfCells="1947">
<Points>
<DataArray  type="Float64"  NumberOfComponents="3"  format="ascii">-1.002656602384889 0.08447139424565128 0  -0.9949779775718873 -0.02590943720146015 0  -0.97443540296702 -0.1344330025222924 0  -0.941478101961171 -0.2397257717367091 0  -0.8962648309829936 -0.341169516799347 0  -0.8397902160191879 -0.4364157420699062 0  -0.7739017758837395 -0.5234264031025613 0  -0.7000179164313157 -0.6010500439595994 0  -0.6207159257442612 -0.6682811429983988 0  -0.5380321608654053 -0.7248828162321457 0  -0.4514609305027211 -0.7723290217259072 0  -0.3613935807859492 -0.8108951630112925 0  -0.2675252052725125 -0.8408601013935266 0  -0.1715953383373642 -0.8615028672160682 0  -0.07383670660697274 -0.8730466432223363 0  0.02431945345769224 -0.8754037634915789 0  0.1220555284727234 -0.8683814112014347 0  0.2188578876024705 -0.8521581540771336 0  0.3135768957861489 -0.8267941668738719 0  0.4051784770874637 -0.7925549312864605 0  0.4943733704127876 -0.7489842141512556 0  0.5790642368489993 -0.6967960166356335 0  0.6590179413808714 -0.6358167219134828 0  0.7355244878242054 -0.5638001779507512 0  0.8059758605657253 -0.4812884746980584 0  0.8675352477605199 -0.3903240235417927 0  0.9188361641856695 -0.2918711583836974 0  0.9582076561843988 -0.1881759811289003 0  0.9849987591985779 -0.08152481350572319 0  0.9993648637625672 0.02811461959889627 0  1.000956956742912 0.137913138958047 0  0.989695507330163 0.2470541548651129 0  0.9658684464814573 0.3545675427033707 0  0.930220636145629 0.4578868464067309 0  0.8829633437812512 0.5568687760057811 0  0.82489228077031 0.6496790469104095 0  0.7561247910056869 0.7360935346564048 0  0.6787927520881792 0.8137265591309772 0  0.5930620954911613 0.882412507539265 0  0.5008144901294979 0.9411796858689151 0  0.4021569751129633 0.9900302220178074 0  0.2982411020272137 1.027878429370932 0  0.1918877447814038 1.054173990095977 0  0.08293010831367789 1.068927816405134 0  -0.02744541364334141 1.071948068639824 0  -0.1372850443761948 1.062913875207103 0  -0.2452131520173741 1.042390957606596 0  -0.3500168808071293 1.010341474944253 0  -0.4511911813525177 0.9671851557168469 0  -0.5466896504814734 0.9136317964914802 0  -0.6363458359791181 0.849533398568898 0  -0.7183109115881368 0.7760116784505028 0  -0.7912298197345613 0.6945222117910889 0  -0.8545199243867657 0.605344386371273 0  -0.907916528486769 0.509017638155996 0  -0.9498012450952813 0.4081940939528726 0  -0.979838419723578 0.3027969961797345 0  -0.9976619970928742 0.1939973405995033 0  2.239496847619264 3.584507107367779e-05 0  2.230495359876743 0.2004920101524261 0  2.203454414017343 0.4001230466224063 0  2.158803523797832 0.595753436911958 0  2.096686953882637 0.7869350569575557 0  2.017821987887564 0.971448380273254 0  1.922465586095555 1.148612875675001 0  1.811761134844297 1.316324752549946 0  1.686330669965977 1.473639234769914 0  1.547660641113318 1.61867718462663 0  1.39631001062512 1.750915821924103 0  1.233708810961157 1.869045501597188 0  1.061449045081499 1.971968206919948 0  0.8799024908132996 2.059391366128047 0  0.6923278779672645 2.12978992154568 0  0.4983352171939156 2.183324135570661 0  0.3006107853675649 2.219196770114416 0  0.1004682318221373 2.237211274006521 0  -0.1007706864181487 2.237224884770311 0  -0.3003199576059163 2.219264631652309 0  -0.4983257200904133 2.183325178387784 0  -0.692326854378655 2.129790768988576 0  -0.8799007067246175 2.059392828737449 0  -1.06121186364958 1.972061994122878 0  -1.233944139416882 1.868879824920075 0  -1.396283174640756 1.750933464925026 0  -1.547641365134886 1.618697832286076 0  -1.686507839021081 1.473454301413319 0  -1.811795426940597 1.316345169110326 0  -1.922498320576687 1.148641607203071 0  -2.017733923563156 0.9716515491048113 0  -2.09660013452442 0.7871349350174067 0  -2.158861794157752 0.595497275208327 0  -2.203443147546768 0.4001694752438375 0  -2.230443381849442 0.200748634505453 0  -2.239468542573736 -8.012397986874261e-06 0  -2.230442678161488 -0.2010454732755464 0  -2.203549695488048 -0.3995810246649917 0  -2.158752526448444 -0.5957788205853326 0  -2.096579219099453 -0.7871803632673632 0  -2.01783589321112 -0.9714087592776056 0  -1.922356040433836 -1.148848596267627 0  -1.81181518337868 -1.316315224193688 0  -1.686479805723667 -1.473479862833943 0  -1.54780739432855 -1.618515822474795 0  -1.396069016657754 -1.751085881378718 0  -1.233978106988413 -1.868854129866689 0  -1.061210048711555 -1.972059317626668 0  -0.8799002334769277 -2.059391071513936 0  -0.6923241659383053 -2.129790276247174 0  -0.4980934560357023 -2.18340018886897 0  -0.3006171736644556 -2.219233145734171 0  -0.1007191622077626 -2.237228407522495 0  0.1007712012634575 -2.237223095141472 0  0.3003215843386423 -2.219263387633244 0  0.4985796771737675 -2.183288641317719 0  0.692012000817103 -2.129905495813539 0  0.8802134046010144 -2.059270579201355 0  1.061005103804146 -1.972207209563418 0  1.233935783676663 -1.868886761855633 0  1.396306112244962 -1.750909875344534 0  1.547451143204518 -1.618863024062716 0  1.686663282090803 -1.473255662185043 0  1.811772529074471 -1.31637241222726 0  1.922512719864286 -1.148607552240175 0  2.017600625583485 -0.9719040467809961 0  2.096658012971584 -0.7868933168237194 0  2.158755423190247 -0.5957743084506002 0  2.203543528857178 -0.3996242004774826 0  2.230479959371701 -0.200784230736302 0  4.914300686825491e-05 0.1224757416929293 0  0.1342664338181982 -1.56248531067757 0  -0.5563451871795465 -1.470291710676999 0  0.7919373505807613 -1.362022808632469 0  -1.144850320094745 -1.097454397172115 0  1.326524477716114 -0.8805720750171466 0  -1.522902465136273 -0.5044507712010218 0  1.591420825182124 -0.2486040614058959 0  -1.614198885888561 0.1926144998271609 0  1.566901020356429 0.4520797328988227 0  -1.39919947942948 0.8565328679723503 0  1.296948638750885 1.016768427961787 0  0.7090777106643834 1.493140523170346 0  -0.9804636760961228 1.331497453322073 0  -0.3004505784452053 1.628459497962871 0  -0.5042927888299886 0.03321370912450389 0  0.5098420773923465 0.1082306325794138 0  0.2041568190820384 1.555425998838686 0  -0.3085256563748641 0.496264226855623 0  0.2494114316449943 -0.3005421229259773 0  0.2512942681850182 0.5320571604592236 0  -0.2368041265843651 -0.3363437910523566 0  1.233552261784278 -1.308852203621921 0  0.5438868677203178 -1.720855924034697 0  -0.3297990617063418 -1.812334330839296 0  -0.9491181512421691 -1.584091169096942 0  -1.542508418090345 -1.017864984935465 0  1.844564505548407 0.07347079008657546 0  1.690272998813895 -0.6555479783421442 0  -1.837354571264735 -0.2560253742127279 0  -1.723266746939518 0.6001338530262191 0  1.131152982068944 1.417402635120165 0  0.8664164318359582 1.141871618964603 0  -0.1828142360479077 -1.287304702197247 0  -0.006913214825746724 1.873162828016351 0  0.9149288318168426 -0.9723045100833295 0  0.3914797678822895 -1.244450153114879 0  -0.7280141834376859 -1.099566200908794 0  -0.7219383144771445 1.671106828472632 0  -0.5472046665109622 1.331354699012597 0  1.650644765290217 0.8759263406732156 0  -1.35869244177567 1.285708013713038 0  -1.153740979182407 -0.6877984101742997 0  0.4888533638435353 1.806761424091727 0  1.262570673830842 -0.4931259810014274 0  -1.480619314433753 -0.1496728522549316 0  1.468779224531704 0.0922811863330338 0  -1.355408230361189 0.4694182130602572 0  -1.755921412735379 -0.7558343482166383 0  0.171766570931546 -1.905409887748209 0  -0.6691028937819584 -1.793511302859042 0  0.985087191454832 -1.644158899236415 0  1.251427956150144 0.6420031591584301 0  -1.015314096778373 0.9702764627991103 0  -1.918388896962817 0.06341956635483284 0  -1.401174466998936 -1.313185675673143 0  -0.0432692121558245 0.7300135414293271 0  -0.6212865083162948 0.3437039410619218 0  0.5731822671228389 -0.2311919811735598 0  1.525210423681083 -1.151908859398566 0  1.884368356703902 0.3942175602763718 0  0.5783562608246415 0.4384932655253946 0  -1.218185214707563 -0.3870021219968176 0  1.917462930519387 -0.2651789538101752 0  1.275419236179417 -0.188579405907062 0  0.4328742458518637 1.319658015619927 0  -0.07824468348543274 1.389337143441051 0  -1.301049490593661 0.1622528181531595 0  -1.598804333262121 1.096205959710388 0  1.282141511111564 0.3268784066656204 0  -0.5777700221506202 -0.2770394867347759 0  0.01987788104938818 -0.5281869738160428 0  1.025800808103195 -0.6948851571038316 0  -0.9247145245661319 -0.8803686518179957 0  0.612703566916437 -1.044211718185766 0  -1.149283104271898 0.6844660624586493 0  0.9575256895354884 1.680325038741569 0  1.023671390242534 0.8775397226487452 0  1.424017598741201 1.309308939235568 0  -1.195397223897295 1.537063689365268 0  -0.300044798294684 1.925750542175371 0  0.09703585423058861 -1.184401258570378 0  -0.4238319880944261 -1.117725069066684 0  -0.7654734309220369 1.128986720165081 0  -1.869643120214468 0.350037301221811 0  -0.02148773255413389 0.409771370162218 0  1.721749116864487 -0.9411957618843265 0  1.84123204516423 0.6725937521077358 0  -0.1537120407842513 -1.579215136441529 0  -1.225047391704245 -1.531315605099475 0  -0.7985848602324804 -1.358867214709778 0  -0.005171556053789279 -0.1621604296476795 0  -0.2377484249979377 -0.02051704301215355 0  -0.2418895560015683 0.2431896883579548 0  -1.433155957749937 -0.7616332838945645 0  -0.7475148906499298 0.1059434415740341 0  0.7514060536343053 0.1738091444868168 0  0.2174271578597041 0.7856912122029435 0  -1.786871983838048 -0.5046177759129354 0  -0.3792868731948968 0.731564330593349 0  -0.07285930546746061 -1.825270803521801 0  0.2569066163877063 -0.5622223044898141 0  -1.763030591357991 0.8764316731386913 0  0.2550138019210603 0.2533049988234494 0  0.2459879921521598 -0.02118687396961001 0  0.171013289880813 1.303643481552946 0  0.4632644792124511 0.6699305239299412 0  -1.225898124588898 -0.1138258471643249 0  0.2366004385891413 1.805098043113047 0  0.5502154004931505 -1.458272042923026 0  -0
[...]
<PointData  Scalars="f_2515-1"> 
<DataArray  type="Float64"  Name="f_2515-1"  format="ascii">3.4237667944455125e-01  3.5669876539413609e-01  3.4167447726862293e-01  3.4979509858816210e-01  3.4422885115335566e-01  3.3924192264989367e-01  3.6751110248254543e-01  3.9270942398493863e-01  4.5206691957158307e-01  4.5265196151271681e-01  4.5345433048800493e-01  4.6006845606942942e-01  4.5503003969878336e-01  4.5028624900035186e-01  4.4041404650565913e-01  4.6705504249353169e-01  4.6125375011974884e-01  4.5186203159621841e-01  4.5965781054903260e-01  4.5541854970977697e-01  4.4534941098713221e-01  4.5492585205952257e-01  4.3101487546431105e-01  3.7223009592514994e-01  3.3709368810742196e-01  3.3771300911191049e-01  3.4336475689266838e-01  3.4804256821731755e-01  3.3671739668241307e-01  3.5478445311380929e-01  3.6046865862481886e-01  3.5715866356767739e-01  3.5739269559373249e-01  3.5666654978820900e-01  3.7135804346450313e-01  3.7007087843784897e-01  3.7446522934189846e-01  3.8100575525281150e-01  3.7893160506660556e-01  3.7969939809203590e-01  3.8624347730885084e-01  3.9068295309096601e-01  3.9337130693546202e-01  3.7715040220767132e-01  4.0235404092957971e-01  3.6639385267944169e-01  3.9218518468318975e-01  3.8617986126301324e-01  3.8172114783676819e-01  3.8880074581968604e-01  3.8200822071308649e-01  3.7821516982778514e-01  3.6900969392103689e-01  3.6934026864221969e-01  3.5060264988046119e-01  3.6656391856491399e-01  3.4498312130234771e-01  3.5056752833138516e-01  -2.7309751014587619e-02  -2.8089427367914799e-02  -2.0188916386947576e-02  -1.0684857291586622e-02  -9.3201434615932787e-04  -1.0360341314391454e-02  -7.6826241478037197e-02  -7.0185206534292804e-02  2.6052876541885952e-03  1.9880772460690185e-02  2.3223708377655732e-02  1.7512758891377996e-02  1.8844167221316405e-02  1.5928956960474361e-02  1.7716751650279160e-02  1.4059861772918767e-02  -4.7510273176408387e-02  -3.7319218405772736e-02  3.1857723630847962e-02  2.8790166055644582e-02  1.0207067590086834e-02  2.3550726592802114e-02  2.0876760340122945e-02  -5.1209270234774312e-02  1.3935329062539277e-02  2.3442203150699267e-02  1.1560807418369486e-02  1.1063913681449994e-02  4.5505783598024504e-03  1.2312604557287632e-02  -3.4569824176619744e-03  -1.5007588678654517e-02  -1.9943609387078603e-02  -2.4474464367176769e-02  -9.1031755213318785e-02  -3.3881389099031475e-02  -3.3651809892476077e-02  -2.9519001467062767e-02  -1.0692001383346117e-01  -2.7066161809594726e-02  -2.5562817226618149e-02  -2.5413086863797164e-02  -1.0431680057883173e-02  -1.3894296998477815e-02  -3.4325533587179102e-02  -2.2550191071415314e-03  5.2166420905168341e-03  -7.2073806134686405e-02  7.6591044368900206e-03  1.1766663793078478e-02  1.4891824145323886e-02  2.2989285271260658e-02  1.8273850882857295e-02  1.7009856829821965e-02  1.9983296224714439e-02  1.6852890235985466e-02  2.5247644667234385e-02  1.7648056566875375e-02  1.8208869588493454e-02  1.4791179273775943e-02  6.8937590364546971e-03  -4.9553305422203537e-03  -9.9898504993814301e-03  -7.4300311290802813e-03  -1.1901247584712662e-02  -2.1377917057970864e-02  -9.3970990824909020e-02  -9.9324188545552278e-02  -3.0912826041665759e-02  -1.9001085590874787e-02  8.2247540304339062e-01  7.5931392802435160e-02  7.0470057490401708e-02  6.5986978843521393e-02  5.0002231196036716e-02  4.0343367324264960e-02  3.0566575676069282e-02  2.9585023471190186e-02  3.5298410407188355e-02  4.0673571324640008e-02  5.3419946040627136e-02  5.7804320013247076e-02  7.5906600681356809e-02  7.0350975241025959e-02  8.1453686916835105e-02  8.1238622270477756e-01  8.0657825425486429e-01  8.2263094428859082e-02  7.9621280261856076e-01  8.6245309309010931e-01  7.9643224718054750e-01  8.6783108053020075e-01  5.2468716482777622e-02  7.0833486901120832e-02  7.2117603649431997e-02  6.1355910706529390e-02  3.8012977414652448e-02  3.1336934798590489e-02  3.1260915953564131e-02  2.8618638709054484e-02  4.2295128710478511e-02  6.6699781453680940e-02  6.6073534754811564e-02  7.5846669295827729e-02  8.0707757995443691e-02  5.5073954663914411e-02  7.1192906703758316e-02  6.1779104197117046e-02  7.5755687871452385e-02  7.3951417770280012e-02  4.7637682908492289e-02  6.0849499958256087e-02  3.0317805102580152e-02  7.8282321341777233e-02  2.6793344035533490e-02  2.9171165035588569e-02  3.1812627567222175e-02  4.1583732828069916e-02  2.9843130320286477e-02  7.2032542520395662e-02  6.6747107893676258e-02  6.0843981073506540e-02  4.5852120486638226e-02  6.3565138435216148e-02  2.9683819197952162e-02  4.5320426278500602e-02  7.8894430137501925e-01  7.9200020773495783e-01  8.1327816297318256e-01  4.0664023905587175e-02  3.4638755409744322e-02  7.8579328161794215e-01  2.1880792162678474e-02  2.6485579841169771e-02  2.4677277043069396e-02  7.9792713324809264e-02  8.6136584287408807e-02  3.1257254918239462e-02  5.1796932041382450e-02  3.8207995977029639e-02  8.1647144296712237e-01  9.0090906605732590e-01  4.0838265928753351e-02  5.1531438744577933e-02  7.5895685457512435e-02  5.7858172264400792e-02  6.9923314899021399e-02  5.6958165396002194e-02  5.7795432961616051e-02  6.5432302578527973e-02  7.8104565133148784e-02  8.0336055147744598e-02  7.0332272321314324e-02  7.6721864182942343e-02  3.4743914725258451e-02  8.0408664149692688e-01  3.1821907824676872e-02  3.9026613933514302e-02  7.5561688220839057e-02  5.2138659810169380e-02  6.4611132351260689e-02  8.5014196982201440e-01  8.3081038828992915e-01  8.1089763382634805e-01  3.5193774780716974e-02  7.7755708995710326e-01  7.6911778428210842e-01  7.7544743025305907e-01  2.8657944621283387e-02  7.6735264755980881e-01  7.3776942465811166e-02  8.9094356967802357e-01  4.4339828673603816e-02  8.1000621027241348e-01  8.3055265071338247e-01  8.9102820804185773e-02  7.7142948951652401e-01  2.8182571993162243e-02  8.0937743146229937e-02  7.1383322485905162e-02  7.1611226676772805e-02  7.4760149539758805e-02  8.2924714127118229e-02  8.0012519068587959e-02  5.3492500170860352e-02  8.8443415222379340e-01  4.3863251068109406e-02  7.5152759190875745e-02  6.3562508408650409e-02  3.5905318072479257e-02  3.2042244894275741e-02  5.2464357452980094e-02  3.5361582967681250e-02  2.4156436889326217e-02  8.5890864443203596e-01  9.6507267490517093e-02  6.8374974725782883e-02  8.7074853804419372e-01  9.4487124285374549e-02  6.4461910685699481e-02  6.2957715098798162e-02  6.9630651686137496e-02  6.8308861884160674e-02  5.1240448161613529e-02  5.7298693480716242e-02  4.9784880778647352e-02  5.8972002037142771e-02  7.6392840982686963e-02  7.6074834723909934e-01  6.7378178482203219e-02  2.9413922346697607e-02  2.9940674183554363e-02  3.3706993980448130e-02  7.6940300021341923e-01  6.2545275271836287e-02  4.1800103882626664e-02  3.5410367509941497e-02  6.0590307921549180e-02  7.3876189778331366e-02  5.6572127270228714e-02  7.3539384376306360e-02  7.4444409915450580e-02  2.9652397905535789e-02  7.0893900620163652e-02  2.2986341507379528e-02  7.6577351414702777e-01  6.5094816820086707e-02  4.4698304187255671e-02  5.7870626646758926e-02  7.8959839723396402e-02  8.3311219896404376e-01  2.3686203925109173e-02  7.5859696260931433e-02  7.3896361184950063e-02  4.6797537571329414e-02  4.0216626727619387e-02  7.6282570801060393e-02  2.3335460638006039e-02  6.7609507660216839e-02  2.3156752391717252e-02  3.6070509227109075e-02  8.9615777067469538e-02  9.5671884949368069e-02  5.5642935595761472e-02  6.9357644397485443e-02  5.7719545326807259e-02  8.9087836078205682e-02  7.1391241586901119e-02  6.6161664497370098e-02  6.7017721899896868e-02  5.4290423257154295e-02  3.6338291517247982e-02  3.0355447556611511e-02  2.7868071234342616e-02  6.2315700944474278e-02  4.2051450296210054e-02  2.9327667173671759e-02  5.4805343049375434e-02  3.6693627764535053e-02  5.6437332104481673e-02  3.6259745194531214e-02  8.0465603985489731e-01  6.0554656968623957e-02  2.4559189113495500e-02  6.2140382826462233e-02  6.8541709830502034e-02  4.3260475070282682e-02  3.0113793494303393e-02  7.0955210181258652e-02  2.6635503154202923e-02  4.3186230718863003e-02  3.1544538877518319e-02  6.5848278683796516e-02  8.2315353608288999e-01  4.0286414039693248e-02  5.1675434103772948e-02  8.0172468468416269e-01  5.8759623602247076e-02  8.0061643919581024e-02  8.1446216871960547e-02  7.4749356826776225e-01  8.6727900544960448e-02  7.6323641185780070e-02  9.9630397024997860e-02  7.6766057990615186e-02  7.3896227638960477e-02  7.5021829417847880e-02  6.2856391789182814e-02  2.3175725043676643e-02  8.7647929019062445e-02  4.5007676067304117e-02  7.4325099758537749e-01  3.3044658759917939e-02  5.4035712603457277e-02  4.4951122135175291e-02  2.7727269697429991e-02  3.2976815891225440e-02  3.6123542193333531e-02  4.3952978355336382e-02  6.6501927708043460e-02  7.3307065479390832e-01  2.9081286630274601e-02  2.2052776702790190e-02  3.6362683870002098e-02  4.9352766147553948e-02  8.7321355431823877e-01  7.4898769582643887e-01  7.7799425995794602e-01  2.6023839438297499e-02  3.5993680190570893e-02  7.0144839444288565e-02  8.2548391694490270e-02  7.2542369349570468e-01  7.4244565645822092e-01  1.1582761160884822e-01  6.7606500148621032e-02  7.0217547984826323e-02  4.9297230477705872e-02  8.8533184615345109e-02  7.8942002903763853e-01  7.9174800498165576e-01  3.6983351751232935e-02  5.1547426416135557e-02  7.5921085221246659e-02  2.9912199113326723e-02  7.3940044245814504e-02  1.3878635208299991e-01  7.3088907058064284e-02  4.0069323546332143e-02  5.1204738639329325e-02  7.9279710466134412e-01  6.1002718033870404e-02  8.4744381448197048e-01  6.6589399849554726e-02  7.4848632075549898e-02  9.2065615804053336e-01  7.2916853493324552e-01  3.3874280165012628e-02  2.3267629377857632e-02  3.1179413964954775e-02  3.1515414968336306e-02  6.3633188848216754e-02  4.2676182325234638e-02  7.0007745783530945e-02  7.3650373189584367e-02  8.9620373038517609e-01  2.8819530786829053e-02  5.6280646873406018e-02  5.2508334269647877e-02  7.8373248065931056e-01  6.4965560954042434e-02  7.3283553471767682e-02  7.9568884169524712e-01  8.2343539719123116e-02  1.4137473181737401e-01  1.4155444925900673e-01  4.3298257526875029e-02  7.9615365831417195e-01  3.2876725236172008e-02  6.2348605784438960e-02  7.5731480351804395e-02  5.4121862267944472e-02  4.6569902140152740e-02  8.1609181532499964e-01  7.3978376534670973e-02  3.3537878065329055e-02  2.2488919289040680e-02  2.9447379401715084e-02  4.5588278228158266e-02  8.7798741016847381e-01  7.3072610171104002e-02  7.1826419700650956e-01  7.9495649427881587e-01  8.0924206493309531e-02  7.8049316018847764e-02  8.2130604361240325e-02  8.2413207583097198e-02  6.7086205111207317e-02  3.3203822759032206e-02  7.8232730984637719e-02  7.4596727766905055e-02  2.0650924374792819e-02  1.3256520485464848e-01  2.3090305698806001e-02  7.5003972452517512e-02  7.9754796130977146e-01  8.4648401630085990e-01  2.1034382813052515e-02  8.1264791850933576e-02  7.1800338320328072e-01  8.0910757922155063e-01  8.1167316229010245e-01  8.0380994396139682e-01  8.1189836532960136e-01  4.0695277160682858e-02  6.4919103405507994e-02  1.3351117695320655e-01  8.1596219746452781e-01  1.9447700888383154e-02  8.8644223355824503e-02  3.9826405513168489e-02  6.1999955239783432e-02  7.8592371443220760e-02  2.9439646241178268e-02  7.2963517820090654e-02  6.8316432033223448e-02  7.4377551605855699e-02  3.6760075347341797e-02  1.4642647333935205e-01  8.4829290582086037e-01  4.0066400780740821e-02  9.9767876942906952e-02  7.5253001400731184e-02  1.1248200367230661e-01  4.0629354588307048e-02  3.1355957139445619e-02  5.8064293055113445e-02  8.7465356962763169e-02  8.8964424305258338e-01  5.5589096498863386e-02  5.6609518833817041e-02  5.3622682810536899e-02  6.9458210617691238e-02  8.4134198800279381e-01  8.4733288789533812e-01  8.3392928244220188e-01  8.2087490439834321e-01  8.3390560990882534e-01  8.2141180106617218e-01  1.3225758084975642e-01  1.3411787050096025e-01  2.9263082421729755e-02  9.5653689234890149e-02  3.1767275493747006e-02  7.1541071803403064e-02  6.4519349276740648e-02  1.4659459006435177e-01  8.0032135351066636e-01  7.9130406692691746e-01  6.9120752666816748e-02  6.4647208183666344e-02  7.8394686434832062e-01  5.0879568533139789e-02  5.7454973133543114e-02  8.1826406856640099e-01  8.4691961389843873e-01  2.5163231674007646e-02  6.7533469043811231e-02  3.4882118674023133e-02  8.1347178307100210e-01  9.4567952992218846e-02  3.7465090888656356e-02  3.2224115798292485e-02  8.0346824335957956e-01  2.5284088430147168e-02  6.1830301867480356e-02  8.0222113368000558e-01  3.9683954164018806e-02  1.4122257311103684e-01  6.4092902244400743e-02  3.0966427143811981e-02  3.0631444423425393e-02  7.8833420331834062e-02  9.4665432537051314e-02  2.2914181307898667e-02  1.3000867192777829e-01  7.3060802220283577e-02  4.0626437591262068e-02  3.8816156167188115e-02  7.0273914134158288e-02  3.2198511060705412e-02  6.9914190565199141e-01  4.9369558446977914e-02  3.7880224482911680e-02  3.2652255497892080e-02  7.5365679768503668e-02  6.3391884608968288e-02  5.4244238182655370e-02  1.2199650266063754e-01  4.8839541135725091e-02  5.8734423640300133e-02  6.8625903074215588e-01  7.0554251685674030e-01  3.2249992869630949e-02  7.1033748603346200e-02  4.4845419010902152e-02  7.7735543593179704e-02  6.9488561303617991e-01  4.8827234928390376e-02  5.7008553049084199e-02  6.0675179662832181e-02  5.9140349591228228e-02  3.6296993047797273e-02  3.3196838929435597e-02  4.3531267273734339e-02  7.6186220683202452e-02  2.7745051672333133e-02  4.9533161553346625e-02  5.7047743966011512e-02  7.9885345060612489e-01  4.9494409509200650e-02  3.7210263158420319e-02  3.2278984038837701e-02  6.4417755906068608e-01  8.7846872012587118e-01  6.2943216857299522e-01  3.9590631280668288e-02  9.0337976628820649e-02  7.3569597187861213e-02  4.6561601362722985e-02  7.1776098753713588e-02  2.9954701938142963e-02  5.6649890970067868e-02  4.5302353436215755e-02  6.5299946796256392e-02  4.7331184263150479e-02  3.8485019108941532e-02  7.5535974412344095e-02  6.3076270743428295e-02  3.6582386971393960e-02  2.1040353653384188e-02  2.8494882060593307e-02  3.3726146902664011e-02  1.5384342599281961e-01  6.8373888915794059e-02  7.6645617548799505e-02  8.5838267671140556e-01  5.9827586588587389e-02  4.9687854983487482e-02  3.9471174462035089e-02  6.8570246198471782e-02  6.3443372550437596e-02  6.8973895068806468e-02  7.8732681483805966e-01  6.8846728038472471e-02  2.7388769651133415e-02  8.0254740147689430e-01  5.3401597472656513e-02  6.4498715095988965e-02  6.7634725256977363e-02  6.2401986579985670e-02  2.7088131752855276e-02  7.2772763088897324e-02  6.5532449705093265e-01  6.0304738813866547e-02  6.6528629148069085e-01  7.6236658146772232e-02  3.1649655884117257e-02  2.2582577309218789e-02  7.7142512297177290e-01  7.2129992855544806e-02  3.3397846436194381e-02  5.7180796067279917e-02  7.2368381541438417e-02  8.2304348143881567e-01  1.6093017397087611e-01  3.4580012555309930e-02  6.7838659430431145e-02  6.4259119034577733e-02  1.6207695807626388e-01  7.9035466974477719e-02  7.1016338056455616e-02  6.9071437490897419e-02  7.1370533042093676e-02  8.8119750392980686e-02  4.7639778416242638e-02  2.6690434364206064e-02  5.8978096452762432e-02  2.0135596929288537e-02  2.4978484906140696e-02  6.5936554833316907e-01  5.6185200708082868e-02  8.0917903782907630e-01  5.5885540093958436e-02  5.8661692592584060e-02  7.4991474782489520e-02  5.9196740884743554e-02  7.8595262126134224e-01  4.9265621472377716e-02  6.9800224539121353e-02  7.2218267291647514e-02  7.2287721431481711e-02  2.8190226365453656e-02  3.0415591035431552e-02  2.7527056861311291e-02  5.4430458872804406e-02  5.4067604936161057e-02  7.0235131648935675e-02  5.5556514463248725e-02  7.8205543808150513e-01  9.5487353497495459e-02  7.4042220010498072e-01  7.7188141402700094e-01  9.0262955821462731e-01  6.0881641323052772e-02  2.9204360917482571e-02  1.9922241908961101e-02  6.5239806220461508e-02  1.3427239414396616e-01  1.6160371370627280e-01  8.3342079568952732e-02  3.5486813682529740e-02  6.9715436207389070e-02  6.9545367292478524e-02  5.4104717736308441e-02  4.4589080929408290e-02  7.8899617010278533e-02  6.1267447530759335e-02  7.1740755018169747e-02  1.0280271338064574e-01  2.4716287737395520e-02  1.0105992566132442e-01  8.6379419313417560e-01  8.0858963240520138e-02  2.2360636586242950e-02  8.3845324061214088e-01  -7.7589475046332878e-03  6.3404763647979673e-02  8.0380998427918793e-02  6.9570071396786448e-02  4.3373931909797644e-02  4.9440531778092899e-02  7.9628640320304978e-01  4.2425012104422122e-02  8.6871399781675643e-02  2.5321648047521579e-02  6.0574427297716427e-01  6.8322586616261088e-02  6.8514229860464237e-02  1.6242252994660900e-01  6.2545832158656611e-02  1.2936582865761764e-01  6.9690518815190977e-02  7.5144684080600085e-02  6.4256481443829991e-02  6.9412268274801472e-02  6.3671029497635823e-01  7.9739746219227525e-02  7.8018592573831791e-01  1.0118824175611579e-01  4.7895107097698383e-02  2.5051536968659104e-02  5.3563514865972155e-02  7.8549999716477997e-02  8.2633134448647630e-02  8.2314458049993405e-02  8.2228459113963259e-02  8.2162116428125889e-02  8.0069863116661907e-02  8.1213450939407544e-02  7.9828517599695253e-02  1.7655633620491396e-01  8.4363397620237768e-01  7.2800941052494642e-02  8.7780659013909812e-01  7.7937081699380573e-01  7.7647876691169482e-01  3.4583208569917291e-02  3.6189440756112058e-02  4.0477213291276397e-02  6.7792608011332606e-02  7.5520400821542499e-01  8.1386510418194535e-01  7.2361909353747006e-02  5.1585607839268001e-02  5.9810245689159558e-01  4.1888895523476466e-02  5.5469560678519762e-02  7.7511181471746016e-02  2.9692875815765778e-02  8.8485436563625830e-01  3.3731115532201178e-02  7.4216794670593805e-02  1.7342130465087816e-01  3.6223593626634853e-02  2.8009235221425878e-02  3.1507197626363503e-02  3.3362898179960847e-02  3.1044134948095017e-02  7.6986866448100127e-02  6.7612478855324204e-02  6.2771810191198416e-02  5.0371001353836924e-02  5.4643399203250939e-02  4.9725216217973010e-02  6.4234644635661975e-01  2.5245131391874114e-02  2.8567922627008274e-02  1.1778897493025385e-01  2.9887164382615669e-02  4.3228051912073046e-02  2.6021970423956757e-02  7.3584219657302441e-02  1.6596509701349269e-01  8.8568957968196493e-01  2.2892844644339438e-02  2.6405307192391786e-02  3.3756199436373792e-02  6.2785384383671830e-02  7.6742333673242166e-02  8.0186270793084630e-02  1.9829967450713540e-02  1.8688810874048653e-02  7.8613923725909928e-03  7.9352125287244613e-01  4.8887728410135889e-02  -5.1264773081788038e-06  3.0160470392941605e-02  2.9182854156403815e-02  3.0440293068790977e-02  3.5225730428837677e-02  8.0283491422725714e-02  7.8467623758473465e-02  1.7409343595150181e-01  8.2928463472798225e-02  7.0687698327282958e-02  6.6923064921269579e-02  7.3405442474205038e-02  7.2624842826425881e-02  7.9884113089734687e-01  1.7556651698098749e-01  7.0752963621322273e-02  7.7703349369545982e-02  6.5132216152769012e-02  6.4466101836690062e-02  5.6784641451204425e-02  5.9943938717348072e-02  6.1489478698469258e-01  -5.1036105190142463e-03  3.3752748334627936e-02  4.7746286457567129e-02  7.4730929076540678e-02  6.2574920428449199e-02  3.1102509097418112e-02  1.3244195060165070e-01  6.7725019105220857e-02  7.3619036222438913e-02  5.4110645179093246e-02  7.0416535197646138e-02  3.6588937791292568e-02  6.2475268546051332e-01  7.9037336144638803e-01  6.5125154393810891e-02  5.2752736082456161e-02  6.4541887437532419e-02  8.3909723835450523e-01  4.6284181553252583e-03  2.5000525285488840e-02  6.5351809128280855e-02  4.8929015994135246e-02  6.6970872367607598e-02  5.0165341403515043e-02  3.7654718159384523e-02  3.6020949047569820e-02  3.6480890438552134e-02  2.4483701477203936e-02  1.5565383249436382e-01  7.2297604890522921e-02  3.6007292026132849e-02  5.9262462030364327e-01  3.3351906902017399e-02  4.5357601498141040e-02  4.0284395642066192e-02  3.8185232361376040e-02  1.5646708717771746e-01  6.8818262144557968e-02  4.1120663976585868e-03  7.4290095887259588e-01  4.7379718426233085e-02  5.1211644625574350e