<?xml version="1.0"?>
<VTKFile type="UnstructuredGrid"  version="0.1"  >
<UnstructuredGrid>
<Piece  NumberOfPoints="1173" NumberOfCells="2198">
<Points>
<DataArray  type="Float64"  NumberOfComponents="3"  format="ascii">-1.01105819806016 0.1667359287774297 0  -1.00770794533292 0.05762805088582508 0  -0.9920256552876273 -0.05044403859798911 0  -0.9643085136112244 -0.156099661380587 0  -0.9247931501457235 -0.2580909868374063 0  -0.8739825499237158 -0.3550645545450647 0  -0.8126199780675259 -0.4455539190727207 0  -0.7418150984461779 -0.5284854949267282 0  -0.6632587027644138 -0.6024587154932293 0  -0.5782110144656536 -0.6666700220653846 0  -0.4876644795643778 -0.7210199689852966 0  -0.3923283091002401 -0.7657776989072281 0  -0.2931063492067244 -0.8004433520220444 0  -0.191184623064081 -0.8249573796162196 0  -0.08761961157913904 -0.8389644321850666 0  0.01660398318626056 -0.8425254343955697 0  0.1208463279527245 -0.8352585199965308 0  0.2238678698614208 -0.8176512098083036 0  0.3248940738745523 -0.7895721721637882 0  0.4226854990041105 -0.7513251310571517 0  0.5164884792239393 -0.7031012598437048 0  0.6050464652291813 -0.6454457868779643 0  0.6878498017979514 -0.5781845799926871 0  0.7638497195733065 -0.5013490501137357 0  0.8316671393060954 -0.4157771187828837 0  0.8895843559787502 -0.3229535896412687 0  0.9367541885135269 -0.2243171010951227 0  0.972404434773517 -0.1213010306316846 0  0.9965184566994526 -0.0146795414147383 0  1.008293554747018 0.09405047201975016 0  1.00765347208766 0.2031789393657008 0  0.9947918978183311 0.311239700347114 0  0.9698324421240822 0.4173120864185433 0  0.9330005245084323 0.5200494323554519 0  0.8851489483720294 0.6177937473210525 0  0.8265095865034967 0.7095827687289912 0  0.75822431435334 0.7945314852746029 0  0.6809144702591052 0.8715911742518392 0  0.5959627182492904 0.9396919004933691 0  0.5041665417197043 0.9982943076453977 0  0.4062894165606186 1.046777123161962 0  0.3040624933744581 1.084480413942499 0  0.1983906280508567 1.11138653671904 0  0.09029828296407956 1.126938262966683 0  -0.0189532729686888 1.130762497753985 0  -0.1277275082670719 1.122845384782043 0  -0.2351652235006073 1.10348254162814 0  -0.3398914993793809 1.072909180562892 0  -0.4406147504827245 1.031490762679843 0  -0.5364857080890325 0.9795181536607358 0  -0.6263989280185523 0.9175199531079204 0  -0.7088085940720296 0.846441532948888 0  -0.7831329589289775 0.7667732787465109 0  -0.8483044491483838 0.6794997533162911 0  -0.903458319021286 0.5855186647099905 0  -0.9478521978036754 0.4860293624508792 0  -0.980871471988868 0.3822006428900191 0  -1.002082001593581 0.2752990519953809 0  -2.344058096662997 0.1009400774688337 0  -2.34406004779612 -0.1009410249912864 0  -2.32670549176844 -0.3020733580255116 0  -2.292123234528018 -0.500969253723726 0  -2.240574147640044 -0.6961564153570682 0  -2.17243290312765 -0.8861897349252709 0  -2.088211325398536 -1.06966371339733 0  -1.988528252510695 -1.245215793732158 0  -1.874121950081995 -1.411550077300516 0  -1.745841795813302 -1.567433334778132 0  -1.604633968535568 -1.711711792854821 0  -1.451547535624282 -1.843317438986104 0  -1.287713606778873 -1.961276221223769 0  -1.114346452763199 -2.064713471437684 0  -0.9327287593310716 -2.152864798745161 0  -0.7442042230010374 -2.225077554328795 0  -0.550171204330282 -2.280816192525296 0  -0.3520649540087851 -2.319666693936847 0  -0.1513525569281535 -2.341346384475061 0  0.05048155637993454 -2.345688380515764 0  0.2519416861684364 -2.33266561429993 0  0.4515362462783293 -2.302374126251691 0  0.6477872687640034 -2.255033304167603 0  0.8392436284669206 -2.190999880651831 0  1.024485483804631 -2.110743767446024 0  1.20214301399944 -2.014860274734716 0  1.370899416749286 -1.904059811311108 0  1.529507200748815 -1.779161709651566 0  1.676789720359475 -1.641092471906064 0  1.811657881379883 -1.490870583167304 0  1.933114183120579 -1.329612810073032 0  2.040257588867492 -1.158511229195575 0  2.132297780663367 -0.9788332075464827 0  2.208549024621885 -0.7919076070053617 0  2.268448067454268 -0.5991176519527894 0  2.31155543645086 -0.4018934292780029 0  2.337546948112224 -0.201694500114807 0  2.346232385859693 6.093980165019501e-08 0  2.337545496902129 0.2016929650167142 0  2.311555275565277 0.4018933960832792 0  2.268449786775139 0.5991177227667194 0  2.208549592620625 0.7919067929628237 0  2.132298018256829 0.9788321635942524 0  2.040259725283093 1.158511962448541 0  1.933113975638242 1.329613286733988 0  1.811659472480833 1.490871705143492 0  1.676790742091883 1.641092659223899 0  1.529506768977071 1.779162323735178 0  1.370900541982629 1.904059322168175 0  1.202142152788195 2.014858842218041 0  1.024484885251586 2.110744508526707 0  0.839244232992591 2.190999807776822 0  0.6477875402589875 2.255033487404863 0  0.4515370722019043 2.302374178550641 0  0.2519418850484111 2.332667227050888 0  0.05048113388427123 2.345690918245194 0  -0.1513529033917514 2.341346361129951 0  -0.3520647449253564 2.319666952395029 0  -0.5501710141003272 2.280816381328143 0  -0.744204329207904 2.225075926436502 0  -0.9327276136623632 2.152863809909056 0  -1.114345534820257 2.064712542806365 0  -1.287713431962382 1.961276435588074 0  -1.451547316279356 1.843317810801782 0  -1.604633317814358 1.711710552737624 0  -1.745839825740491 1.567432160162292 0  -1.874121066394559 1.41154917082455 0  -1.988528022967416 1.245216507359359 0  -2.088211902778087 1.069663411763757 0  -2.172433685168936 0.886189564356803 0  -2.24057235479358 0.6961563917442267 0  -2.292123568866644 0.5009687176759007 0  -2.326703832516848 0.3020729425994541 0  -0.0003114100934968209 0.1479987275916025 0  0.1029958464087487 -1.594336477745105 0  -0.7013702241626649 -1.445845666163212 0  0.8120025185981029 -1.385439426666626 0  -1.345521771475993 -0.926523783768412 0  1.385827342354988 -0.8689010123134202 0  -1.639476761706594 -0.2871773375885056 0  1.652023657525922 -0.2166243618370857 0  -1.640213067830755 0.4303390805928127 0  1.621750452863541 0.5009849311752056 0  1.282021106594194 1.147498923699497 0  -1.329348761729666 1.090713874884676 0  -0.7809376033119819 1.545896448348149 0  0.7271807974739055 1.57198215236456 0  0.1126117402709467 1.737743274178237 0  -0.5035239960287424 0.07914898686174915 0  0.5067419012189111 0.1486104997919298 0  -0.3008790743144272 0.5431553375729653 0  0.2469907679573336 -0.2823801957598184 0  0.2499735762521844 0.5744220236224705 0  -0.3536337171336 -1.813522823271408 0  -1.20263265527912 -1.407117727672695 0  -0.372838020901996 1.822428356576197 0  1.294949358163143 -1.34363297541598 0  0.6008534395662655 -1.795955467491465 0  -0.2440027388606067 -0.3133137990938696 0  -0.8873383353683737 -1.019811165418024 0  -1.754559004122437 -0.805868003309856 0  1.780390721875099 -0.6482011307782736 0  -0.2021381465154315 -1.271423660644165 0  0.9405361306600735 -0.9537222600121292 0  0.397230059401351 -1.227819115834437 0  -1.941906996597362 -0.001552178157722437 0  1.896550436167724 0.1543154469291837 0  -1.77547910372741 0.8128520395613579 0  1.664044903803933 0.9367781423493654 0  1.296062534457451 -0.4540882761348154 0  -1.271409958005114 -0.4931038214091943 0  -1.203546435131489 1.49811608156119 0  1.147468376108381 1.547556487416362 0  -0.0005360878327898145 -1.965242624426202 0  -0.4147966241524501 1.444494243944216 0  0.4620018783431847 1.912525426325384 0  -0.7353157849408047 -1.826669082296107 0  1.079576729386046 -1.656000866178605 0  1.424314128195066 0.1315920737185934 0  -0.5333697439923548 -1.117711516975836 0  -1.406149886566115 0.103050615529806 0  1.284005935414914 0.734860078490395 0  -1.411157133559449 0.7251212107256679 0  -1.539566322876679 -1.246505029147297 0  1.610182118039668 -1.158799210074204 0  -0.9557325846194786 1.197612955690834 0  0.8898719501821015 1.20875500370581 0  -1.933105466760535 -0.4948963326801576 0  1.96858362672922 -0.3582544029353378 0  0.3666783035025227 1.456837358256153 0  -0.7224829382458002 1.883852788946173 0  -1.666837700045644 1.135958741102454 0  -0.09010252748815452 2.009160328663793 0  -1.979153923142561 0.345627375968116 0  -1.021085417531341 -0.7153573057132466 0  -0.03810410508154846 0.7796819337676036 0  1.891485800530051 0.6962560182103006 0  0.5750162060193241 -0.1885090510090363 0  -0.6152379951337966 0.4022833061666973 0  0.5763342081503553 0.4864918456900071 0  -1.117716124873143 0.8502932845980919 0  1.51975265076096 1.362394931941356 0  0.7753630984522585 1.88337253859122 0  -0.9671748907022412 -1.614773982380233 0  0.3315507366519486 -1.99213794091471 0  -1.306270350133949 0.4139525001060457 0  0.04581442638777788 1.433941906798201 0  1.2924811045488 0.4181367084040713 0  -1.018739780602715 1.759841686573919 0  1.043395506861414 0.9351231729975578 0  1.046029770258835 -0.6542734165253331 0  -1.27627197017838 -0.182084077018378 0  0.6780390154111214 -1.109563358911067 0  -0.5899424280395187 -0.2242083556016088 0  0.01459748532218068 -0.5117400972927941 0  0.09019273160894616 -1.153155294157201 0  0.412888828641405 -1.542575511454083 0  1.282387014308074 -0.1454805808268899 0  -0.6570501752612868 1.258749584579546 0  -1.466335316782693 1.356969602687732 0  0.6018797582556931 1.276781516606075 0  1.825084641204539 -0.9466887712292402 0  -1.561752088048371 -0.5756991815626861 0  -0.1550967147824017 1.637348269986293 0  -0.190292929341345 -1.566925751860733 0  0.1945802260381547 2.010335530092278 0  -0.0189038097818534 0.4443114630428185 0  -1.6617283984425 -0.009787837532933047 0  1.882091206802708 0.4249280650415679 0  -1.233253777664263 -1.679283465374137 0  0.8342578636226485 -1.924907240850164 0  -0.4486442535890498 -1.36690291501962 0  1.19632558285175 -1.078005056505679 0  -0.008273233498616606 -0.1426361422420691 0  -0.2380545005087875 0.008138952279434838 0  -0.2387570170244846 0.2794671063886012 0  2.072969349786878 -0.09019825800076257 0  1.569418463116578 -0.4751918854484005 0  -0.7577455355420017 0.1211249658115294 0  0.7355192385078613 0.2754151233539146 0  0.2205818878188318 0.8354533261751
[...]
<PointData  Scalars="f_3079-1"> 
<DataArray  type="Float64"  Name="f_3079-1"  format="ascii">3.4584508222149679e-01  3.3317316085439663e-01  3.3324816069178637e-01  3.2989835047216065e-01  3.2935736791457826e-01  3.3776544556292160e-01  3.3043194912425905e-01  3.4187743513072849e-01  4.0711639948564166e-01  4.2816820881642842e-01  4.3819627962059127e-01  4.1954095382641893e-01  4.2169746563034088e-01  4.3467094567388143e-01  4.2915517148824422e-01  4.2988703421832397e-01  4.0965759034572025e-01  4.2743825927921275e-01  4.5001648389237769e-01  4.3600675635009190e-01  4.3018810225794446e-01  4.2812766340097425e-01  4.0223641189574511e-01  3.2625980191047660e-01  3.3912779057991788e-01  3.1525630032104152e-01  3.4060385218912109e-01  3.2860385392371028e-01  3.4317136944643428e-01  3.3118223443166084e-01  3.3340439508861464e-01  3.3777143711759711e-01  3.5610866924714885e-01  3.3376997331130370e-01  3.5508980902903897e-01  3.4854292244067386e-01  3.5428628386326966e-01  3.5878361800249436e-01  3.6494080254944572e-01  3.6648326348980537e-01  3.6041083338582114e-01  3.6625001448980893e-01  3.8143212367656221e-01  3.5082843678308018e-01  3.8076540990866398e-01  3.6715557031587370e-01  3.7034046948283922e-01  3.6958577330371156e-01  3.7218970305994359e-01  3.6187133866743171e-01  3.6029377167503013e-01  3.5554633369000360e-01  3.6384695021965091e-01  3.3776697098822933e-01  3.5623737490984742e-01  3.5498618973947682e-01  3.4304395739800653e-01  3.4408454040540321e-01  -1.0677574513068581e-01  -5.0015320722717180e-02  -4.3602821014044099e-02  -9.7445211748705213e-02  -4.2745874494320137e-02  -1.0885057237400066e-01  -4.6299193427939520e-02  -4.1603539664113308e-02  -4.3940590164989080e-02  -1.4698379579781715e-02  -3.1802810878993379e-02  -1.9337579845206669e-02  -6.5601159697338662e-03  -1.9258453874172080e-02  -1.5324822054776165e-02  -1.2932474817429833e-02  -3.5899179776481900e-03  -6.1097174114943219e-02  -8.5207501098080868e-03  -6.6008020271142762e-02  -5.9896750996737205e-02  2.7254861703217377e-03  -5.9846182084110806e-02  -1.3479619373234402e-02  -1.8525238921073019e-02  -1.4980793861558360e-02  -1.9982931573365975e-02  -3.0914623550375827e-02  -3.3171889709387406e-02  -9.0794317045192738e-02  -8.3360489865805132e-02  -9.3452127594141968e-02  -2.5157604951659984e-02  -4.6765732603549708e-02  -9.9645528678095965e-02  -3.9943092066969825e-02  -4.7789052114902794e-02  -3.8775546610516888e-02  -9.5971541018056716e-02  -4.7384469799217351e-02  -4.5842931130902084e-02  -3.3320451626105654e-02  -4.3991706950636721e-02  -2.2529238542583662e-02  -7.7640841537735705e-02  -2.2087863266280549e-02  -5.2583378657633196e-03  -2.3520638915795394e-02  -1.6493041133985295e-02  -6.8579697118613087e-02  -1.0412642539791158e-02  -8.0237842618519992e-03  -5.0953540688214324e-02  5.8740300984121184e-03  -1.7284976080657029e-03  1.8255945055753599e-02  -6.1427288125105962e-03  -5.1253606631086211e-02  5.3954236669172977e-04  -6.0321555681806978e-02  -5.9182594807059979e-02  -5.7530137279225305e-02  -3.7240482275455503e-03  -9.8321336956196173e-03  -7.5469489708900730e-02  -8.0463953480677405e-02  -7.9781837340447054e-02  -2.9788271865053357e-02  -3.0145397488835650e-02  -8.6394729125139277e-02  -9.8832783097359059e-02  -8.7214237670091663e-02  -9.5141423213898457e-02  7.9883023476583637e-01  6.0893291552669385e-02  5.5007887763799286e-02  5.3262608909849893e-02  3.2995842479045440e-02  3.2392294948681358e-02  2.4217072585583432e-02  2.4570313972554589e-02  3.2626535544708964e-02  3.3124608131893496e-02  4.9232579461163842e-02  4.8564890664484946e-02  6.2730348248267717e-02  6.2932264357020040e-02  6.8602570059778975e-02  7.8541747526034988e-01  7.8324969224826457e-01  7.7336977606284540e-01  8.3475885112528703e-01  7.7334652366037626e-01  5.9095726646527652e-02  4.4154006910790813e-02  6.7307917043728821e-02  4.2405943024117349e-02  5.6826675863194176e-02  8.3692998728914791e-01  4.3430852114547301e-02  2.5797563373353937e-02  2.5307905125271132e-02  5.7135135467272474e-02  4.1421914539907359e-02  5.6479199679917998e-02  2.4309669249673028e-02  2.6045526867612159e-02  3.6650285117774670e-02  3.9567016145265956e-02  2.0048607038411981e-02  1.8343171917228562e-02  5.4953417808326244e-02  5.5339788213891010e-02  5.8634697985215242e-02  6.6402947147565825e-02  6.5048457204244514e-02  5.3839370655525645e-02  4.8445016835903770e-02  2.3855319915872343e-02  5.6785150354998266e-02  2.3580388834097344e-02  3.9916405660887569e-02  3.9947682687313808e-02  3.3867012219795850e-02  3.2426868667970628e-02  5.5397784637869027e-02  5.4922099608543155e-02  2.1589331572263917e-02  2.0830584486116795e-02  6.5185694313272119e-02  6.2196072988737534e-02  4.1889516777364820e-02  6.6066729321428486e-02  2.6820831951514686e-02  2.6868857874290608e-02  7.6764292809261503e-01  3.1763884628193947e-02  7.9642658839224723e-01  7.6838654967515085e-01  7.6854979409109148e-01  5.0901619733051302e-02  4.4649969556868202e-02  6.0670015043660944e-02  5.0460928619279199e-02  5.6711939185089086e-02  2.6639167755691247e-02  6.6130293057739389e-02  3.1457197487825231e-02  5.7792224311692300e-02  4.8785314691886510e-02  2.4119359465577288e-02  1.1958736585549133e-02  5.1884345689770489e-02  7.8897444516276760e-01  8.5448681248011937e-01  5.4247501095771762e-02  5.9393829801091015e-02  1.8570304649443082e-02  6.7945515456710653e-02  4.7992528227774153e-02  6.7163141061901202e-02  2.4818579176450216e-02  2.5516511482511803e-02  6.9048702771299930e-02  6.0609802321803199e-02  6.5695549804347594e-02  7.8081350073708777e-01  2.5803074051496434e-02  2.9204407640046420e-02  4.1602428084327861e-02  5.0099868702184962e-02  5.7567709661152815e-02  4.0229685315849778e-02  8.2189794485685685e-01  8.0550321071381370e-01  7.8686508192119620e-01  2.0511393442780683e-02  2.5042258107172130e-02  7.4575289105026832e-01  7.5415570706033919e-01  7.5788189279550855e-01  7.4748000948801030e-01  7.5583622942795214e-01  3.2253158404956385e-02  8.3877091739188403e-01  5.3315672997154354e-02  7.8643254389591311e-01  8.0645201047627491e-01  5.7854533339731354e-02  5.5468554666605240e-02  7.4720683302445545e-01  3.5612981584048811e-02  4.9395753833623192e-02  3.9065833132677280e-02  5.9256112394347089e-02  5.4228589218691337e-02  2.5653136220336988e-02  6.3651756904495704e-02  6.7898233209839273e-02  3.9298554282848473e-02  1.8544862084578149e-02  4.7374888110770778e-02  7.5835618041863240e-01  6.5881628406051856e-02  1.8896040859037320e-02  3.3740404419893975e-02  8.5117226233202192e-01  2.1491514057170272e-02  4.3297157799262347e-02  4.6885809310534814e-02  3.9628370200934494e-02  2.8049313794898077e-02  4.7366305108486453e-02  7.3306402205531002e-02  3.0961418500347421e-02  5.8098835144957499e-02  2.8653257504812343e-02  6.7168983634136023e-02  5.2701448642314769e-02  8.3711191412930241e-01  3.6147090295996463e-02  5.1143849346366552e-02  4.9058673660748349e-02  6.7408116761404249e-02  8.6010198287306117e-01  2.5678279531139117e-02  5.2251995968832697e-02  8.6740725706970639e-02  1.9515688608554387e-02  6.0143608804747971e-02  2.4889732067721614e-02  4.8379021227691311e-02  2.9127675497316114e-02  3.3977532653874237e-02  7.0795851621983111e-02  4.7137609092413206e-02  2.4464109528291398e-02  5.3993653222689578e-02  5.8773580792872267e-02  3.1824039698935797e-02  5.6719148233789173e-02  2.6817596958054430e-02  2.0597166618444351e-02  6.0939883411250895e-02  5.1635075154816176e-02  3.6475021089864536e-02  4.3586357561814684e-02  2.6914790560447464e-02  4.3387511635020609e-02  7.6247740622518170e-02  5.5506260338142412e-02  6.0132374331741983e-02  6.4667894377936561e-02  4.5204240881472596e-02  3.4080559123609133e-02  3.5615665895074429e-02  2.1739989921260219e-02  2.0346710698549132e-02  5.9271748177411432e-02  5.2449749298267213e-02  2.3389553790718959e-02  4.6431815237850740e-02  8.1122309251664382e-01  5.4868016951302168e-02  3.7887983345251987e-02  2.2329978626728610e-02  3.9552234696850187e-02  2.1965672582622824e-02  2.3679417492832127e-02  5.7426883331933812e-02  5.4541333297594391e-02  5.9497718474538067e-02  1.7587723086629960e-02  2.4570279449076832e-02  3.6873429822953191e-02  3.5207881790799436e-02  4.9290716918174174e-02  7.2382286104706386e-02  7.7457633207791657e-02  6.9495283595726209e-02  5.3204704220616794e-02  3.6914466388863858e-02  5.1798875179849754e-02  2.9434243074809678e-02  5.5914958167701964e-02  5.3575407959345747e-02  2.9320343848014248e-02  4.3285178466358910e-02  3.8995615600821459e-02  1.5389846093365522e-02  6.0700062629834121e-02  8.7535428384480168e-02  4.8455674420274354e-02  2.1460536791714700e-02  2.8233899425197315e-02  7.8009878197413940e-01  3.2730299861703449e-02  5.9848621772181435e-02  3.4660591915076408e-02  6.1374155055812528e-02  5.1643344564514221e-02  5.6392878223085009e-02  6.1036476113666756e-02  7.7660247097004864e-01  9.2423220991811411e-02  8.3543683951017217e-02  4.1231743622840496e-02  7.7759252342342400e-01  5.4481785912708781e-02  6.1335323881514719e-02  2.9018068034132233e-02  7.4131196473934535e-01  7.9952095136809698e-01  6.7698412389713969e-02  6.5388340447112614e-02  7.7824069118921549e-02  4.6048032732415319e-02  2.4538796027209570e-02  2.4720149742691370e-02  6.5856422184234792e-02  6.7483673540909561e-02  2.2882795870836505e-02  6.8314918303622213e-02  1.3072376816503184e-01  2.1707558881563057e-02  4.4903500317552858e-02  4.4742882184505131e-02  1.3720354917124231e-02  7.2681651292834204e-01  2.7780384929766672e-02  5.9325982880009599e-02  1.0313446542957730e-01  8.3968263411995869e-01  2.5821721439888042e-02  4.9357816057575395e-02  5.9788486868074475e-02  1.3644693118815063e-02  7.1839508513066941e-01  7.2192189021114750e-01  6.0032469088682476e-02  3.2719276880337010e-02  6.0891739757711540e-02  7.5104298356793275e-01  1.5408138097698204e-02  7.2044452628052058e-01  2.6870895855890052e-02  3.9352500679948818e-02  5.7007341392939212e-02  4.9191643606356576e-02  7.2022156421064154e-01  7.1871848317729925e-01  2.7219022008191946e-02  6.0416813815260290e-02  3.9289000731655963e-02  3.8929066396708518e-02  6.5241122250571174e-02  7.6870218194487538e-01  7.6903175040032656e-01  2.7119461139552034e-02  5.5648295134078429e-02  2.8076818209119035e-02  4.9590415988851069e-02  3.0376755878437647e-02  6.7130188996285908e-02  7.7375153520996087e-01  2.4888278673147184e-02  3.5102557187366837e-02  6.9669328881586812e-01  4.5385139014041891e-02  2.4219837866306160e-02  1.8602627860542863e-02  1.3347867483335668e-02  7.7067835595896228e-01  8.1779063380110240e-01  3.3663563154953169e-02  4.5544192927990813e-02  5.2421953939826439e-02  6.3469761516765574e-02  2.4434925776553450e-02  9.1570713247979066e-02  5.5197776527838999e-02  3.9942337739961871e-02  3.4326080183239120e-02  4.6013247066684422e-02  8.5679529381680009e-01  2.6188241363903509e-02  2.4123928826056878e-02  7.4088145835398433e-01  6.7815950202661485e-02  6.0059894744527491e-02  3.1924770388296414e-02  8.4684958741313943e-01  7.7298541453204361e-01  2.5498419532423690e-02  4.9675285815126473e-02  1.4852417338842122e-02  3.3847461086426875e-02  5.8208570826684056e-02  4.9656153107653658e-02  3.2613346940059532e-02  7.9134297782186402e-01  4.5962650624261123e-02  7.1931696068101603e-01  3.2408905329159902e-02  8.5061901334038981e-01  6.9760691533537345e-01  6.0091790205243648e-02  7.1358967238609750e-01  5.9112572476543911e-02  8.1384740582613121e-02  4.1767543805304182e-02  6.3694882617278181e-02  8.1043852712774023e-01  7.6895246912551327e-02  6.6461860433872907e-02  8.1947989950093603e-01  5.2382598090248145e-02  4.7237919300233182e-02  5.4856445169972665e-02  3.5526072371754300e-02  3.7853014858605739e-02  4.1334660773462747e-02  2.8944874863051730e-02  4.3270918455495896e-02  8.8545785228073964e-02  1.3332047133002006e-01  5.5379737523721703e-02  5.1639658727332116e-02  3.5256001212940244e-02  5.1316700295200121e-02  5.8228687008235497e-02  5.8820904667453704e-02  5.8367441160174449e-02  6.0427538421978955e-02  6.2492259435114328e-02  5.5679739161000420e-02  7.3377710600123006e-02  3.5730784344150536e-02  5.2512922168596911e-02  4.8136397028408169e-02  1.9110531690460675e-02  9.7189137270968007e-02  7.8067345223063911e-01  7.8845091838343428e-01  1.9023075764073010e-02  5.1164790101978545e-02  2.2900143606197139e-02  2.3564294522682969e-02  4.6432114193834625e-02  4.8530465719405128e-02  8.5523522656311846e-01  6.8123896567431466e-02  1.3168910660783539e-01  7.4592954100492270e-02  6.0565964545239472e-02  5.1875966524610066e-02  1.8189089187276661e-02  3.7984762888566351e-02  3.9707380775871721e-02  5.4432074305956625e-02  3.9788827184370087e-02  5.7011989982754696e-02  1.6042535051192294e-02  4.7185645157646547e-02  5.4889308912763696e-02  1.3989412906104167e-02  6.9306215288724701e-02  1.2992942461914764e-01  6.8871096666290668e-02  7.8311932768761905e-01  3.8788686827467181e-02  5.8004305811802957e-02  7.7027987563524813e-01  7.6861177743428821e-01  1.3026450644847837e-01  2.9509765095468404e-02  2.2252325645253479e-02  2.6355317559203988e-02  6.0486217765125187e-02  7.7854499873612026e-01  5.8546768362411940e-02  2.8743872413044238e-02  7.9463388309312144e-01  2.3793708630818346e-02  6.1076272039267243e-02  7.7345844625352234e-01  2.2371426655123833e-02  6.8512239866648672e-01  7.8012065367533590e-01  8.3221304371581839e-01  8.2020580242360408e-01  6.4124540046822512e-02  4.9230298051073200e-02  5.1753590087259320e-02  4.8270041033713434e-02  1.2707603585778568e-01  7.7264279422260773e-01  4.4871378822650555e-02  2.6252711607078281e-02  2.2671086573919110e-02  7.9009457982554832e-01  7.9700067160759314e-01  3.0136728766114944e-02  6.0748216448491259e-02  1.6248758597263224e-02  8.1011865568053587e-01  8.0894183111906814e-01  3.6299052521632763e-02  4.6277874250902282e-02  2.4455362166826755e-02  1.1517459730205877e-01  5.1711958740346814e-02  5.0184848267113710e-02  4.5208770031342584e-02  2.8653228403309340e-02  5.5192684683605976e-02  6.3251648392122814e-02  7.9333108517337891e-01  3.5163368035214401e-02  6.5193607147873778e-01  5.5739523198072204e-02  8.0367068948852954e-02  2.9842915059183336e-02  7.9741089591858794e-01  1.3050626459153098e-02  3.6414227938436468e-02  3.8232144773647295e-02  4.7150580216588640e-02  2.8602981839003418e-02  2.6204089516772468e-02  3.0937818683629055e-02  2.9095373478552639e-02  4.1337245578953824e-02  6.8197020217076396e-02  6.9908776394400962e-02  6.1389303874065437e-02  5.5009154885782355e-02  6.6523767564402231e-02  5.2327822775480148e-02  6.6327712086201265e-02  5.4217889395872368e-02  1.2738428970122104e-01  5.1816128331302759e-02  5.8745939821241475e-02  3.9808859233578874e-02  4.1636605495378808e-02  7.9983825441944190e-01  4.4161922997984465e-02  4.7350135221230591e-02  7.6524131326103639e-01  5.8958015889891455e-02  5.5894748660393866e-02  4.5695733668348573e-02  1.4726677063869267e-01  3.3776129100646521e-02  1.4493315167099804e-01  2.4336298261654284e-02  5.8058614480324469e-02  2.6330944505427802e-02  2.4327599622913719e-02  6.5212475182173735e-01  3.5985089194869035e-02  3.0373812962444326e-02  2.5619782490651822e-02  5.5040726412042322e-02  6.4113594406292529e-01  6.6978260002270876e-02  8.2737661060994871e-01  7.6577927826233128e-01  1.2038151240517028e-01  2.1238521854481263e-02  1.9067189750086633e-02  1.8580298322955883e-02  6.4360158364333264e-01  4.5252417270039189e-02  5.7241244906099886e-02  2.2559897388172951e-02  2.4697549178405453e-02  2.5690206572388220e-02  4.7487679642636407e-02  7.2750480586997679e-01  6.3280415464226780e-01  2.4937347180911666e-02  6.4505861862961811e-01  5.4102603107786050e-02  3.0379663494644951e-02  4.6991222872415125e-02  4.5118278455236860e-02  5.3622729939170048e-02  2.4518075473598723e-02  2.9540481218231072e-02  7.6275730032879074e-01  2.6394411601142427e-02  3.8153421449689091e-02  7.7890528568939377e-01  1.9262744528206428e-02  1.3656781304616041e-02  2.1252358775321778e-02  6.4427798257050162e-01  4.8847556255714901e-02  2.1595052059492977e-02  1.5559135608227711e-02  5.9589610077040257e-02  7.7523749384903162e-01  6.6471815098624520e-01  -1.2507463032226497e-03  3.5481617669676543e-02  9.9779859954963981e-02  5.7251622517612004e-02  4.2850394493490665e-02  6.4631073138617401e-01  8.1185850785844138e-01  5.4183825509868000e-02  4.5025558596371258e-02  7.6039409828770110e-01  9.5308011976427218e-03  7.7342569597323974e-01  5.2303761163181459e-02  8.4626843455225184e-02  3.2947267913855445e-02  8.1388141455589746e-01  8.3681119628375256e-01  1.4593014231108919e-01  6.4392320298034281e-02  6.6237466507367726e-02  7.7085717686537714e-01  7.8543491499840601e-01  3.3102142663120532e-02  4.2882186995257005e-02  2.9828112230476458e-02  2.4281772849151440e-02  2.5253632985783800e-02  1.8487134084454893e-02  7.6128888088896896e-01  5.0137162327026273e-02  3.0605672561092558e-02  5.4941874291900353e-02  7.6782379370466602e-01  1.6295951283570215e-02  2.7874485310093035e-03  4.0347607930073623e-02  2.7119792984306799e-02  6.5068024607763869e-02  2.9793878654549813e-02  3.5323230495898333e-02  3.3944999650888770e-02  2.3398427120591789e-02  5.4001920156781104e-02  7.6079906833337518e-01  5.6034257043899818e-02  5.8736150604381816e-02  5.6375301218443592e-02  5.6867525931011638e-02  2.7161211635324558e-02  2.8356518910560173e-02  3.3936762463862416e-02  6.2103634702895358e-02  5.3823624697790506e-02  2.9969097187279886e-02  4.8378598810971694e-02  5.9149197403855103e-02  4.3329681883942033e-02  3.7102430759413121e-02  4.1811262725234451e-02  1.4612277583341562e-01  2.8441594561691149e-02  6.1360729505672236e-02  5.8104165358859344e-02  5.5651304724200025e-02  6.0016290315486782e-02  3.2893766877390034e-02  1.5716633295477828e-01  4.1157378949540802e-02  1.8107290789623743e-02  5.8118492380959938e-02  8.5726487483471392e-02  4.0287319870326591e-02  9.9144760207990248e-02  4.2077204761826567e-02  5.0536766021192954e-02  4.3964358617155405e-02  5.7130928976052736e-02  1.6073383689999465e-01  1.4423559258314558e-01  8.3063501726707412e-01  4.8210270196442633e-02  2.4807636141422715e-02  5.9220643098905797e-02  2.1297054422969527e-02  5.9165705891254916e-02  4.8809195037443111e-02  5.2098781683772549e-02  7.6308536364151835e-01  2.7526190650215502e-02  8.9110040980287936e-02  5.5743772727493257e-02  4.6524676520254632e-02  4.1559691006114424e-02  6.4693036848320423e-02  6.6962539111117714e-02  6.4606053073739525e-02  7.7529864076931465e-01  3.6488861192012327e-02  9.2852677135527528e-02  9.5262142228102600e-02  2.7315873113501105e-02  1.3703467866631416e-02  1.3412124771214158e-02  6.4011285439480078e-02  3.3503332424644067e-02  5.0780584969029166e-02  3.7113136063332573e-02  3.6860952106296765e-02  5.8653376043441709e-02  1.4316160273146894e-01  5.6959131131104145e-02  6.8404974455314571e-02  6.0069548123881961e-02  5.7771764770713760e-02  2.7082493357361230e-02  7.8372910163784282e-02  6.5856431060581033e-02  6.0851726884613183e-02  5.9907284642136863e-02  6.7555546431425390e-02  7.0866682080202703e-01  8.5362680748777264e-01  9.4782106181584280e-02  1.9676580960944514e-02  5.6473779889825729e-02  4.3860933690800442e-02  7.6093261937018364e-01  1.6564847393665386e-01  4.5937919093156074e-02  4.3198808703951160e-02  4.2472737148170146e-02  5.5930673794977161e-02  6.8041949258608458e-02  6.6651626352425858e-02  6.7089256382343407e-02  2.3769796883837391e-02  1.7724081963583081e-02  3.2692542534041220e-03  1.6083045908721085e-02  2.1756632409098670e-02  6.1400319315056961e-02  4.6181932954258841e-02  2.2761391059898762e-02  1.0068144599186898e-01  5.6751734526104713e-02  2.0535569571061989e-02  2.5079304354587717e-02  2.8006748571038562e-02  7.2958611356300962e-01  5.0428263856261007e-02  1.3957660066243888e-01  3.9161114462677775e-02  8.5329720772928686e-01  8.6796100392576814e-01  2.8807012285603475e-02  2.0650430445733822e-02  4.8496611698714491e-02  2.4377190120282864e-02  2.8201639390393000e-02  1.7743978265175257e-02  4.8327307082066673e-02  5.3434343846297305e-02  8.0411707488979067e-01  1.28029847194