<?xml version="1.0"?>
<VTKFile type="UnstructuredGrid"  version="0.1"  >
<UnstructuredGrid>
<Piece  NumberOfPoints="829" NumberOfCells="1578">
<Points>
<DataArray  type="Float64"  NumberOfComponents="3"  format="ascii">-0.97336976068234 -0.01554350720434768 0  -0.9654324565485662 -0.1218072863227956 0  -0.9450858407361975 -0.2263637734877497 0  -0.9128934773129196 -0.327544577634941 0  -0.869178552396877 -0.4245937904091711 0  -0.8151366749532221 -0.5151752585279007 0  -0.752622791940981 -0.5977301250438524 0  -0.6830398786368873 -0.6713872919090083 0  -0.6073152767179278 -0.7362715716931313 0  -0.5263899324543045 -0.7924118747531818 0  -0.4399031486457502 -0.8401322688182976 0  -0.3498615984164837 -0.8786553371137208 0  -0.2560395034992805 -0.9084449879415696 0  -0.1599881727315759 -0.9286684084182166 0  -0.06281017769177437 -0.939507062587644 0  0.03470314949119101 -0.9409831697219089 0  0.1324827665209371 -0.9328412885274143 0  0.229115472518304 -0.9152150171250499 0  0.3234864743658076 -0.8880672125407189 0  0.4149344365839415 -0.8520375171144796 0  0.502138190449621 -0.8071462953917738 0  0.584603618715886 -0.7535696719523353 0  0.6616561538206007 -0.6915739157022043 0  0.7330523869402157 -0.6205023066571603 0  0.7978374030668586 -0.5404377504055314 0  0.8544525961324451 -0.4519240634678075 0  0.9013118717486663 -0.3564797578532414 0  0.9370121131305086 -0.2562381992010451 0  0.9607126476911034 -0.152682875632678 0  0.9721695656484648 -0.04670509326025515 0  0.9712493006773741 0.05979572773976062 0  0.9582144758307032 0.1650039440016328 0  0.9333328794316212 0.2678293289528489 0  0.8965756910208967 0.3679598679532969 0  0.849200984997902 0.4626110908685065 0  0.7912833333175648 0.5515408887280737 0  0.724087581462168 0.6332510961177235 0  0.6480244613710142 0.7073644352846878 0  0.5641850271935538 0.7727560891503018 0  0.4738393210978217 0.8286586921082583 0  0.3778454867530278 0.8745773675005932 0  0.2778452839446097 0.9097472868050315 0  0.1744073829079251 0.933964211414212 0  0.06844690958387435 0.9469979604804689 0  -0.03764592474016341 0.9487983701927062 0  -0.1437391715096431 0.938851454113003 0  -0.247850907088673 0.9177445321824427 0  -0.3490256151916738 0.8856305456106646 0  -0.446201350634345 0.8428911252520815 0  -0.5385089467896368 0.7897314198323631 0  -0.6241952542238333 0.7270848369416555 0  -0.7021647445633787 0.6560110237421641 0  -0.7722645674666955 0.57648008017884 0  -0.8333309441950043 0.4892690370064481 0  -0.8842204289208327 0.395705737504066 0  -0.923834482263838 0.2976683296365341 0  -0.9524460368277922 0.195076581108591 0  -0.9689809713979939 0.0904403599767642 0  2.040704837261355 0.00014213050551729 0  2.030883880085458 0.2000228665263477 0  2.001521718852463 0.3979821119738043 0  1.952791819405296 0.5925239496835614 0  1.885379248648395 0.7809288437340972 0  1.799748758703519 0.9619865533874314 0  1.696792061088114 1.13375890544513 0  1.577495143115028 1.294614519601306 0  1.443003048892727 1.443002732847629 0  1.294617249814883 1.577493512139823 0  1.133760896226093 1.696792456659442 0  0.961988018351286 1.799750426736068 0  0.7809476978194738 1.885375241515733 0  0.5923914077010471 1.952843319605212 0  0.3981055211327358 2.001506665336071 0  0.2001710287515237 2.030868074884509 0  -0.0001467556027605334 2.040709125976421 0  -0.2000046706983839 2.030891008959346 0  -0.3981448015219028 2.001499396016956 0  -0.5922457430268488 1.952879258507533 0  -0.7810812528640125 1.88531297265226 0  -0.9619706735036391 1.799758035849641 0  -1.133763662499006 1.696791046004127 0  -1.294616294174148 1.577494462580111 0  -1.443004231329044 1.443001606715019 0  -1.577494400823428 1.294614941490474 0  -1.696791606310437 1.133760677377567 0  -1.799757148046182 0.9619674753899811 0  -1.885310355764863 0.7810803504890083 0  -1.952815802846994 0.5923782901415193 0  -2.001526480063985 0.3979492573099067 0  -2.0308599946063 0.2001964365413098 0  -2.040685051738429 -2.95818700067967e-07 0  -2.030863942417511 -0.2001697565926632 0  -2.001497054629089 -0.3981229567288265 0  -1.952873949769171 -0.5922479857419733 0  -1.885308894282522 -0.7810795340734805 0  -1.799754364633056 -0.9619681971749803 0  -1.696790906942415 -1.133759482480884 0  -1.577479346508911 -1.294627483188364 0  -1.443101315965625 -1.442892822400661 0  -1.294500225451628 -1.577578716223809 0  -1.133759374032655 -1.696789497886128 0  -0.9621088617316195 -1.799678100641656 0  -0.780808171013904 -1.885424456848152 0  -0.5924088417806838 -1.952834931374523 0  -0.3981031291037778 -2.001507285547611 0  -0.2001694250954368 -2.030867049996015 0  0.0001727857436837137 -2.040706684040835 0  0.1998534633393063 -2.030896789202662 0  0.3982664136174816 -2.001468310004891 0  0.5923706436939807 -1.952846445729658 0  0.7809500889647258 -1.885374031720973 0  0.9619863825228692 -1.799749137102424 0  1.133759376042618 -1.696791829493669 0  1.294616122921297 -1.577492674389853 0  1.443000666018706 -1.443003475764117 0  1.577503071690619 -1.294600134576833 0  1.696703774481816 -1.133874983375107 0  1.799809330822945 -0.9618528756671985 0  1.885363139380865 -0.7809626623422234 0  1.952839562185116 -0.5923886278267495 0  2.001501466187378 -0.3981049978087495 0  2.030863435121287 -0.2001696587874694 0  0.002075526345789832 0.02145221298378693 0  0.5085838891938151 1.40772710408362 0  -0.07390838664840321 1.495783939852589 0  -0.6452052383001107 1.352781948258094 0  -0.3360673215409348 -1.459164344295826 0  -1.119623519392393 1.003086894708518 0  1.014910231658777 1.108241499777899 0  0.2909763123466125 -1.467305683603962 0  -0.8937316478669984 -1.210205444416248 0  0.8680003488276538 -1.225022547682846 0  1.366701655954683 0.6346388990289887 0  -1.424037316419601 0.4978518368726449 0  -1.505566730123655 -0.08676447399432688 0  1.289601548295778 -0.7795691315811062 0  1.508172133220163 0.0630262722468833 0  -1.290203591724823 -0.7800234794362029 0  -0.4850127529900645 -0.06708817273593125 0  0.4918298232550951 -0.0316987790533866 0  -0.3009867017017573 0.384730189112705 0  0.2824381634877088 0.3989992546186392 0  0.2000834564671616 -0.4104015180075159 0  1.367675691183923 -0.3541942249267311 0  -0.2368437110814106 -0.4290592357878356 0  -1.289283143730984 -0.4055299503427019 0  -1.648702813618759 -0.4022965441668923 0  0.2490245107575971 1.670013077605277 0  -0.4123259331871893 1.63776655249704 0  0.872597143143613 1.447225439576309 0  -1.010992831747195 1.354363454809257 0  -0.7224001204699367 -1.528236136303992 0  1.362525858054035 1.001650427217651 0  -1.673642185186679 0.2401275767390954 0  -1.454751895967316 0.8631066204725349 0  1.230493048270326 -1.14100982576376 0  -1.252500059118256 -1.136294819899162 0  1.642841459467977 0.4031023860750102 0  -0.08346483786646901 -1.70137052687095 0  1.589659101186799 -0.6115290686303174 0  1.697813626959008 -0.2579244478030753 0  0.7291455216591987 -1.54239827950429 0  0.01149431516731396 0.6149170533139551 0  -0.02119722035276765 -1.377239339529807 0  0.5130047800844426 -1.19815495265948 0  -0.6060092071196491 0.2324255508904118 0  0.5229701434255145 -0.3601710760197668 0  -0.7775923983227204 1.032332181795419 0  -0.5460279675845041 -1.175993413138762 0  0.977915337940769 -0.9128404893732204 0  0.1908222187231884 1.27396603868631 0  0.5897417304535246 0.2731953838636183 0  1.269980647421136 0.3023480131346782 0  0.6877532987361091 1.074425717382829 0  -0.2577830482620581 1.233348674847609 0  -1.297496640148873 0.1770582392692984 0  0.9949289177451183 0.7898959965082871 0  -0.9680677084731681 -0.8367581916150643 0  -1.126162707611678 0.6586614732070973 0  -1.590003970147484 -0.7545305788692901 0  -0.5561462836870622 -0.3635307176060475 0  -0.01048245586084144 -0.6274501200092288 0  -0.007194448122953333 0.3137352363741552 0  0.2019541872993681 -1.743258263510997 0  0.4832406469846212 -1.689129053352571 0  -0.4319098652188594 -1.724702347166298 0  -0.5093590764589473 1.110672138214131 0  1.060439743712659 -1.429387404850399 0  0.5263715658857017 1.685263089566114 0  -0.1618359099625616 1.758546997662581 0  -0.8255681745886337 1.561677711630153 0  1.10999927060417 0.5364595861986106 0  1.131985267727419 1.358243670374915 0  -0.7366674121141341 -0.9817349464657144 0  -0.2284456564646639 -1.202542581281417 0  -1.364971179115459 1.124270481813602 0  0.1903247520332809 -1.208212646213365 0  1.255958136147353 -0.09261648007980135 0  1.134921427158371 -0.5362427718495157 0  -0.9888603865454241 -1.467048954273558 0  0.7051777579346685 -1.002435752165887 0  -1.083359094589626 -0.5931362106513864 0  1.566735609867091 0.8234850547471944 0  -1.682144675198532 0.5951787253667484 0  -1.782114937329345 -0.09295727540414715 0  1.545979521269829 -0.8740009672928243 0  -1.2344889361069 -0.1452911454861864 0  1.771696136586735 0.001799005859499104 0  0.4243222718457125 1.136285461732855 0  -0.2568102067666138 0.6422849883439373 0  -0.02517022605016203 -0.250742468032243 0  -1.474130991323241 -0.9910270345827064 0  -1.162294447660765 0.3982226689329156 0  -0.9334016148268144 0.8271734570986052 0  -0.7240667691012709 0.001945844894636252 0  -0.2293895581349322 -0.09659502015832255 0  0.7171938543075486 -0.1441028717043426 0  -0.2148550418724605 0.1525502352685111 0  0.268531464319536 0.649415629044525 0  -0.5349724292768603 0.4747534337749232 0  0.3905814270102918 -0.5718160466317419 0  0.2353751713378532 -0.1344993837933274 0  0.2672288668482011 0.1318922645889848 0  0.5046984927611223 0.5090505133926604 0  -0.2352082566220705 -0.6673052003276682 0  -1.42319335493199 -0.5923611978858251 0  -0.4284758588910481 -0.5543382213110727 0  0.09039661981307144 1.833599595638856 0  -0.6202581398793215 1.728021282579418 0  -0.03508868731264359 1.274643354213744 0  0.7582530097359873 1.653282462957177 0  -1.2360747807952 1.358133181276362 0  1.363840509982502 1.230447363185086 0  -1.234027845458591 -1.360811381800087 0  1.702353885009132 0.6330594363252606 0  1.80182129042224 0.2346711912814449 0  0.5209626167155712 -1.432575224470631 0  1.1537919821
[...]
<PointData  Scalars="f_1493-1"> 
<DataArray  type="Float64"  Name="f_1493-1"  format="ascii">3.7291829044881614e-01  3.8015135491300522e-01  3.6048725717852126e-01  3.6687377895386636e-01  3.6993389216598282e-01  3.8217672978647566e-01  4.3534234172532804e-01  4.4861647587111458e-01  4.8839915508292059e-01  4.7784220804771377e-01  4.8373797812355085e-01  4.8350756652983085e-01  4.9269619159464451e-01  4.9478499939331388e-01  4.8756591296245755e-01  5.0466565184357726e-01  4.7446970858872212e-01  4.7436507128196137e-01  4.9395209938311657e-01  4.8116582740424979e-01  4.8464302593111969e-01  4.9653618002967675e-01  4.7191442376340875e-01  4.4052575371609726e-01  4.0750091325037263e-01  3.6499087043806083e-01  3.6245577055926975e-01  3.6806247027718331e-01  3.6740954134771919e-01  3.7730911396116873e-01  3.8539349885841834e-01  3.7852692164268420e-01  3.7236521332960248e-01  3.8500709306002473e-01  4.0579414815777848e-01  3.8434680115259223e-01  4.0324464816186123e-01  4.1165968026422678e-01  4.0782328736324225e-01  4.0235057860067336e-01  4.1017764064125073e-01  4.2268212382459303e-01  4.0830862987975508e-01  4.0885770559327039e-01  4.2042790950714420e-01  4.0299981882624836e-01  4.2039687145428695e-01  4.1203454450508142e-01  4.2191520616211503e-01  4.0403728155841007e-01  4.0441339176635260e-01  3.9852068156733339e-01  4.0850995021281078e-01  3.9215733681769627e-01  4.0257181084705324e-01  3.7656761947767975e-01  3.7840275941526802e-01  3.8308648609730450e-01  -2.2033374499194430e-02  -1.0900150919690243e-02  -1.4966409674634697e-02  -5.0690556060330912e-03  3.1253766094147956e-03  1.3981443368760040e-02  1.8208013500322053e-02  2.5221309037096133e-02  2.2853219326349261e-02  3.6719938147838693e-02  3.7153026824747720e-02  4.3194021754166576e-02  3.8892168714944136e-02  4.9569875464127645e-02  4.6209072743196758e-02  3.9628567839312109e-02  4.1252610462523279e-02  4.9268092846651214e-02  4.7387795633252995e-02  3.6708430311317611e-02  3.6706216731126132e-02  4.1533056847146088e-02  3.7057949539728130e-02  3.4376177884176615e-02  2.3181301172119483e-02  2.7583954119985789e-02  1.9969938340051792e-02  1.3935015761824637e-02  8.4027629732375355e-04  -7.8833823145682630e-02  -1.3853308155180061e-02  -1.8184055865441730e-02  -9.7972600649638877e-02  -2.3011628816842562e-02  -2.0956901062233340e-02  -3.0682093464680326e-02  -2.4792588112761346e-02  -1.4997971012543722e-02  -8.5934957371625043e-03  -3.1245656947896370e-03  -1.4945984545745277e-03  6.4519409440884990e-03  1.9292261737882236e-02  3.1559096185967542e-02  1.7839049399075674e-02  2.6984023871494098e-02  3.4017131211633606e-02  2.9484148841935540e-02  2.4104500441772723e-02  2.6206661684474747e-02  2.9855783010291643e-02  3.0344739748165161e-02  3.1013740005850967e-02  2.6277325258605204e-02  1.8020587299487738e-02  1.8659485739155473e-02  6.7296754834324408e-03  5.8690607802238282e-04  -1.9206205319063530e-02  -2.1413161063640742e-02  -1.8852106221188599e-02  -1.8974495239096442e-02  -2.5252783701163985e-02  -2.2316244018873693e-02  8.8461417395776876e-01  9.0976790240033759e-02  9.4982288328891384e-02  8.8724514678639579e-02  8.3120324870433748e-02  7.3582818298147584e-02  7.8187205799346682e-02  8.3569529286125016e-02  6.8927229634426462e-02  6.9725161092663329e-02  5.7699644914380191e-02  5.2208455804774664e-02  3.3638524790624187e-02  3.9279210795914427e-02  3.7808329411626582e-02  3.9270080749552558e-02  8.7382906630293455e-01  8.6998064433301447e-01  8.5197826786865183e-01  8.5196530844126261e-01  9.3982214894354166e-01  2.8393192753251674e-02  9.4095579885701508e-01  2.1507861432240559e-02  2.8878234195652025e-02  9.2606151832073685e-02  9.1423665602877638e-02  8.4027905446631648e-02  8.0276821702292556e-02  7.4479282627048018e-02  6.6599574378857038e-02  4.0301414606399757e-02  6.1628948703951761e-02  5.2665458251491958e-02  5.1746926938490492e-02  4.5109779615383316e-02  8.1059266511489397e-02  3.0552842502323575e-02  2.9172409811381556e-02  7.3798558027460659e-02  8.4304816413996797e-01  8.3729908207821405e-02  7.7983344636694291e-02  8.3787676182796866e-01  8.9624962733244196e-01  7.8104832453780498e-02  7.9392132277176217e-02  5.1463075329907466e-02  9.1508748798109829e-02  8.4035679625963888e-01  4.1042847636004548e-02  8.4201278268517796e-02  9.3402818280207925e-02  3.8823639247469038e-02  6.6416287134313579e-02  5.9141066934278425e-02  6.4135849716497523e-02  3.1720629234072213e-02  8.9362376756857653e-01  9.7090711321417045e-01  8.6095785660777580e-01  7.8878338182461358e-02  7.7055805419369613e-02  7.6424566283434872e-02  9.7352463008980941e-02  6.1250195065036275e-02  8.8061482894391474e-02  9.1164395605430049e-02  8.3843749627948466e-02  6.1200351932454808e-02  7.5851334460793798e-02  7.9064912066867180e-02  9.7751177125690425e-02  6.7489537107915304e-02  1.0125610647842702e-01  3.4164837808208455e-02  2.6369273188658133e-02  6.4776968487819372e-02  8.4982031835184588e-02  3.2692747443862344e-02  5.6275459366059100e-02  4.8223567922680823e-02  2.9592639431427238e-02  3.4025963685327426e-02  3.8696187350317574e-02  3.2045825897087814e-02  9.5954122063920386e-02  8.2726992468193405e-01  9.1698073619430609e-01  3.8472999994169713e-02  5.8655578227573821e-02  7.5778360509354700e-02  8.2865937594062422e-01  8.9301202504592392e-01  8.2387620174595522e-01  8.7002276682236146e-01  8.2380336745533067e-01  8.1945164723759856e-01  9.4789082096198174e-01  8.9744374311968211e-01  8.6996038020865407e-01  8.2182590737548000e-01  9.5661041020353521e-01  3.2421145212037011e-02  9.4078301761822747e-01  8.9420754369106376e-02  8.5558665266215667e-02  1.0072287628350510e-01  8.3709466363108595e-02  7.1836341313454677e-02  6.7346679222088604e-02  5.3561025714379401e-02  4.7542831590371641e-02  3.5259765916372657e-02  8.0504749420030469e-02  3.2903189644361321e-02  3.2517636794258835e-02  3.1484991536441895e-02  9.2178046816401044e-02  8.1543088325358626e-01  9.7988196613170875e-02  8.3494974226953511e-02  2.3685817094465378e-02  7.1063185614182178e-02  3.9091582090008466e-02  9.6816954010558609e-01  5.7347988622851780e-02  9.0294974453021237e-01  7.9263820164140991e-02  8.7117603659553289e-02  5.8102501913266359e-02  8.1992007908127462e-01  7.6027532623607674e-02  6.2806215748889768e-02  8.5911394678171704e-01  9.4584535147358151e-02  7.9558625391214166e-02  2.4288414565870605e-02  3.9949076110461466e-02  5.1023860287620910e-02  7.9567780366541357e-02  7.6597322074896848e-02  8.5161497358841498e-01  7.5816721426008205e-02  7.1254662393209600e-02  6.0450700031611376e-02  6.2880355936708487e-02  5.2410132111194607e-02  5.0135219392292929e-02  2.9415877345934930e-02  4.9774707591841778e-02  3.9971541918710149e-02  4.3176819157158340e-02  3.1489078933747194e-02  2.2537870650724236e-02  6.5840754527654741e-02  4.4686957365719392e-02  3.8624846314023374e-02  1.1273714346037036e-01  9.3669665579245345e-02  5.3703395458461839e-02  8.8753826297762559e-02  8.4846609431208281e-02  9.4390117131665596e-01  3.0453136937634247e-02  9.3158899015585897e-02  7.3264472529023586e-02  7.4156077051496030e-02  6.0830672957127747e-02  4.9266179616470951e-02  6.0758318138290079e-02  8.1065635423451757e-02  7.0006705163067562e-02  7.9633901537381424e-01  2.1235236699581609e-02  9.3725528088064017e-02  1.1313581847510917e-01  8.6883205808836766e-02  7.9906621850005033e-01  4.7898694744003496e-02  8.6067582757252209e-02  4.4750029951741967e-02  7.9279672889360664e-02  8.2991654739230605e-02  7.5377706877344339e-02  9.1210145619007965e-01  3.1017175034407058e-02  6.5435805989676035e-02  5.5487135681789056e-02  6.1711931980898381e-02  6.3210606819756932e-02  5.5370249789031885e-02  2.3591903473362742e-02  4.4270071976628612e-02  3.7751036776318754e-02  7.4352706682355968e-02  4.7397691403628615e-02  8.2511015131809237e-02  4.2159687647476470e-02  6.9591337245134721e-02  8.5564274306018462e-01  8.7914616625137970e-02  1.3259239665033984e-01  1.5309573620398834e-01  9.3307012377062779e-02  1.4069612210168897e-01  8.4244370425566817e-02  1.2387066739647322e-01  7.7888869803524363e-01  7.8195233109632956e-01  7.8227412271709451e-01  1.4915147744730950e-01  2.5031792886442587e-02  8.8841040907817492e-01  8.0232125157893774e-01  8.1505948001312417e-02  8.3788419013604981e-02  7.3484479154888857e-02  4.1213783702489626e-02  8.5251900350366033e-02  6.6509871008214302e-02  1.5271272760011645e-01  7.8669221511944643e-01  4.2997533001448061e-02  8.4603567037979754e-01  1.5329907328860026e-01  8.7529648508007185e-01  1.1295778073951698e-01  1.4245763234929543e-01  5.5357313536274273e-02  9.2269024110656822e-02  8.5855345855131132e-02  1.0594517097867823e-01  3.4914787738229126e-02  8.6314889930625263e-02  7.7199091572585476e-02  3.5415301257039518e-02  7.7593011455056635e-02  8.5544013875315156e-02  7.7565490711716811e-02  8.3290215263522566e-02  5.4430703825377687e-02  7.4771565018021804e-02  6.0920928857889148e-02  2.4774303502485231e-02  5.9115746789520307e-02  4.4991534590549963e-02  9.1483528880744092e-01  5.4593591849030176e-02  6.8688896527549087e-02  5.7365609215960005e-02  8.5611581056352626e-01  3.0607233401976817e-02  8.8694688864709947e-01  4.7025533710819127e-02  3.4999386300136895e-02  9.2624423348537233e-01  1.4558810029420038e-01  9.3979741822027940e-01  8.5317437893802062e-01  8.7084765122710384e-01  1.0749030833462271e-01  3.1321817304441203e-02  6.7589502811268867e-02  3.2807967419961927e-02  1.4120103495188122e-01  8.4048207967151942e-02  8.6966301145946751e-02  7.0504450238403793e-02  8.3288551701905897e-02  5.6715729243350783e-02  4.8674828974871256e-02  8.0747418107679658e-02  6.7243636236750587e-02  8.6917276718960090e-01  3.0049118299494835e-02  7.4245810845681007e-02  8.9924740566587294e-02  2.9814304087551188e-02  7.6874223627836769e-01  9.6970762591062271e-02  3.8165789957427934e-02  1.2245126217847528e-01  8.3684949177660506e-01  7.5576431591338322e-01  1.4291346546518643e-01  3.4553725589510607e-02  7.6758607161567446e-02  1.3329854611205755e-01  4.0793763474972385e-02  7.1826487544849327e-02  9.0183390474218950e-01  9.2674983273169254e-01  3.0100640776050330e-02  9.4420034322713509e-02  5.6836457080028109e-02  9.5806658964618607e-01  8.7080330948111362e-01  8.6167755700774173e-01  7.7568964819893615e-01  8.7628352002998378e-01  8.6168969952477178e-02  3.1015462840094196e-02  2.1688532567794353e-02  8.6498970126308716e-01  8.7994140585913472e-01  8.8343195606574410e-01  8.5915366833799700e-01  8.8563588929825188e-02  8.4747983080392597e-01  8.8170007164986283e-02  8.9752010963958434e-02  2.5234385873432883e-02  3.5914290812575848e-02  8.2314819673399167e-02  9.1000637406252541e-02  7.3139583770331321e-02  9.6173937867519166e-01  8.1113765993366324e-02  8.1532952223242097e-02  2.1719759089224244e-02  7.9899991283576624e-02  3.4071779377464265e-02  2.9256578910426868e-02  3.3660952259934873e-02  7.3350510798241716e-02  7.9911340400992889e-02  6.9884474890937007e-02  9.1733401517648328e-01  8.9912950912544576e-01  8.9817481289279899e-01  7.7453068406671932e-02  7.8667593813736614e-02  7.5246329400539338e-02  3.7165666942171979e-02  8.4817426752549319e-01  1.0085880103432696e-01  7.0356316970172494e-01  1.3807221193991051e-01  8.4783016783208631e-01  7.3468492490496007e-01  9.3505305278523720e-01  7.0864747342951118e-02  8.5101462729871047e-01  7.2131515660465884e-01  8.5618485502135000e-01  6.5915986811567157e-02  5.7802794962621647e-02  2.5801398543603755e-02  7.2684413002161316e-02  6.0838939224519099e-02  7.9158373715984345e-02  8.9873876757562499e-01  9.0054061571698069e-02  7.1254181557031032e-02  7.1151841576340344e-02  9.0420821334536813e-02  6.1717992839578073e-02  6.2167063935038604e-02  8.0965530373407077e-02  8.0794556029812267e-02  7.7298317541161440e-02  4.0891324404967615e-02  4.2254947898427826e-02  5.0352171209168836e-02  1.2002240448783823e-01  1.5839117237995531e-01  2.0145954161138527e-02  2.5998383606734614e-02  1.4822781181143468e-01  7.3594512245455868e-01  8.9874715640060721e-02  9.4955830414252818e-02  6.7640022523855842e-02  1.5624475258207701e-01  1.5773634219743479e-01  1.5488190069752264e-01  1.7785655361871652e-01  8.4035682263591760e-01  3.0151552825051699e-02  1.0545604270302109e-01  8.1753735788715406e-02  8.1989077238766819e-02  6.0650445532193599e-02  2.4562803625536478e-02  3.1404567245638997e-02  8.5839666828731054e-01  7.3087391870267651e-02  6.9644933601965886e-01  5.9842367194262808e-02  7.0345022851653027e-01  8.4094237763036139e-01  9.3768722173976554e-02  3.0569956510949868e-02  3.3995239496979156e-02  4.5038119287313993e-02  8.6804806653284194e-01  6.9937221703861541e-01  8.0688092396684563e-02  9.1348276056174363e-02  8.2964912450712539e-02  5.1097085839032511e-02  8.3876806712329866e-01  9.3259049351884027e-01  1.3613463349711696e-01  5.7753140079189837e-02  1.0654819081245322e-01  8.4696381913183405e-01  3.0960106644636557e-02  7.5697767464653440e-02  9.0668189066308372e-02  8.8269168605034132e-01  8.8634838903753865e-01  8.5191068784508689e-02  3.9876622979807680e-02  9.3332360509288892e-02  6.8721358253265707e-01  6.8404823997591541e-02  3.3738809913969804e-02  3.1228046661349960e-02  7.2009518109458145e-02  7.2461600733560769e-02  8.3902321816999115e-01  2.8185911421780813e-02  8.6064676441096444e-01  2.4994260782094740e-02  7.6357591420282214e-02  4.6169824558330699e-02  7.1374618672134377e-02  8.9007140597206502e-01  4.1287670837710032e-02  8.8299962183966352e-02  2.6286748837338253e-02  9.5158745187899330e-01  7.0151526880105697e-01  8.1200170784610082e-01  8.3484028117474030e-01  7.6430903136970471e-02  5.6470275862551947e-02  9.3806731582253416e-02  1.1974561799429309e-02  2.3721683193028160e-02  1.7176478456740391e-01  2.8441481065918074e-02  6.4180656433529965e-02  3.0997665831717938e-02  8.4541665827843993e-01  6.7395828467730101e-01  8.6238612616253429e-02  8.8492382430690061e-02  5.8901082602376413e-02  9.2572449072871335e-02  3.9465162996447485e-02  1.8098494273210711e-01  9.6133320294394656e-02  8.3587657597625975e-01  4.5021756789622960e-02  5.2699602332087779e-02  9.3058473642857575e-01  9.5471736590854436e-02  8.7163148357424614e-02  5.1358429629795220e-02  6.8031180212466971e-02  8.9361374248086337e-02  3.6343763570543801e-02  4.6945439410444684e-02  7.8562583412024573e-02  3.2692417578121004e-02  1.8925052257943900e-01  5.1156666910659954e-02  6.9239095859862140e-02  3.8612600501258115e-02  1.7666976930440267e-01  8.6461098380960011e-01  7.8686054652604032e-02  3.8611465618804394e-02  6.6357032363814383e-01  4.1631511707310130e-02  4.5615848826318167e-02  5.2310501108105201e-02  8.3113498568127431e-01  6.7550225575547559e-02  3.4832476277898629e-02  4.0975799908211645e-02  8.4613441941789866e-02  8.0284611459573871e-02  8.7299131190807316e-02  7.7452476809993107e-02  8.1099410115777884e-02  8.2746259168478553e-02  9.0971199835259559e-02  9.2521710176101252e-02  8.3278169413483497e-02  9.5323128870442153e-01  8.2557843480490367e-01  7.6061355695494368e-02  2.6561367670992046e-02  7.3658460418076344e-01  2.7718830710002355e-02  1.0666823513806896e-01  9.2415764732722783e-01  6.2844218886366976e-01  3.2539788123324032e-02  3.4953671794413617e-02  2.9614595891808669e-02  7.7683355889773376e-02  1.4116270496486341e-01  6.2137894699714723e-02  3.7647620010836859e-02  3.4142339818667468e-02  5.3898080933832894e-02  1.9523876070117324e-01  9.4785880452422519e-02  8.6849391975881785e-01  1.5946859837832528e-01  3.4435919958610707e-02  2.1050570038891467e-01  9.7004511294507045e-01  8.4265864920753289e-02  8.5121128819351771e-02  8.1446153232183946e-02  8.0359697079118789e-02  1.9283871018597304e-01  8.4731478315824060e-02  5.3685022788842018e-02  7.0170872272481838e-02  3.2327746486405927e-02  3.4868807397286622e-02  6.6858934436399522e-02  6.6839932961544349e-02  8.3752186087455063e-02  6.5263921281112539e-02  6.6080041639826323e-02  5.8626485975548953e-02  9.4081758754539113e-02  5.1194963445283737e-02  4.5002478012436585e-02  5.1031021094228947e-02  8.6945939624107654e-02  1.9454132341891850e-01  1.6956494036695796e-01  3.2073305172041572e-02  8.4405067584984639e-01  9.4646276286561484e-02  5.5113042040797984e-02  6.4360774884344010e-02  5.6871061907143659e-02  7.6077349543780606e-02  8.0724801443252545e-02  8.5360230802952949e-02  8.9609212647538655e-02  8.5646577397665991e-01  5.9955259702811840e-02  8.6102421499118287e-01  2.7686008734511911e-02  2.8346791936874432e-02  3.4724738808952202e-02  7.8924152617004389e-02  7.0388825632303614e-02  6.4866142590007647e-01  7.8777919462592300e-02  5.4805377964670721e-02  5.2122153782334986e-02  6.2504537248060243e-01  6.6135038108850008e-01  1.0528122598238861e-01  9.2036903366702105e-01  1.1944247413880478e-01  3.3137732152942710e-02  2.4205357564751794e-02  6.1325961964403056e-02  9.4327554306839714e-02  6.4063421746093008e-01  1.4881663418063609e-01  4.8685499236576495e-02  7.4672950078354991e-02  7.1032728662485903e-02  8.1641949692440485e-01  7.8338621506321232e-02  6.5907032387359274e-02  7.2964629107514334e-02  8.5415282436615514e-01  1.8876763887507506e-02  1.6551361903761566e-02  3.2737898741042860e-02  2.8475961384969023e-02  6.4755656999932409e-02  9.0217674229107633e-02  7.1627056899490144e-02  6.8689723256249377e-02  5.8141621303484825e-02  7.4264248525000576e-01  6.0145409153916092e-02  5.4665347383223810e-02  6.7457390542962070e-02  8.5756837582865869e-02  7.0754559392477059e-02  8.6309746915210328e-01  8.0048981745778874e-02  9.4383728307581571e-02  2.7279677965946339e-02  1.8581674670210362e-02  7.5231027801347730e-02  7.8898163355560658e-02  7.8101148519464675e-02  3.3176775579914664e-02  9.5842717312509096e-01  9.7004856285843533e-01  9.6078097470249335e-01  1.2219969744331886e-01  8.4207971303975074e-02  8.2041596788938603e-02  8.2352119675612109e-02  9.1166783652945371e-01  4.4162286222667192e-02  4.3196029730426459e-02  3.8310530897571152e-02  4.1257253240116407e-02  4.5387496749963854e-02  8.9745619815047861e-02  6.4178336078835352e-01  7.9071402546625713e-01  7.5537139830515257e-02  9.3053694181577673e-01  8.4843001626597317e-02  8.0170201223894066e-02  3.1031617842357750e-02  2.5174093144305885e-02  9.9366475725293640e-02  2.7319668107418028e-02  8.3562792116383344e-01  1.6257694417610566e-01  8.1587304629042942e-02  7.8293708414076124e-02  8.2269097718771139e-02  6.8382594259578910e-01  1.9578215060928500e-01  8.9972816948303747e-01  8.8700312518297708e-01  8.9553445976919333e-01  7.8070021527580497e-02  5.9826359284266203e-02  6.0250970508974322e-02  5.6208404414034303e-02  4.9322164403747849e-02  2.4628819868863585e-02  3.2391711123706576e-02  6.5860147492227752e-02  3.0319055012902784e-02  3.1498162043332591e-02  2.6779084980914719e-02  4.2094965865749713e-02  9.6627325611692017e-02  9.1053435031434232e-02  8.5992080442774232e-02  4.8236710057508327e-02  4.1567593434656373e-02  8.7861799531087825e-01  4.5973755824635434e-02  9.0954985970897539e-01  3.7003543728374562e-02  7.4533237431457247e-02  7.9899446630796289e-02  8.3932165618608459e-02  8.3630768956001328e-02  1.2742292904574379e-01  1.4051593704410900e-01  9.3244025868981406e-01  2.3432808046572257e-01  7.2024748854775378e-01  5.7748246942000592e-02  6.9949395597656491e-02  1.7520863002587245e-01  8.2714491434397741e-01  7.6726742624746533e-02  6.9430621780367005e-02  6.8976297204311227e-02  3.5828533866748523e-02  4.4330444747087736e-02  2.1257451053051487e-02  6.5656439852137330e-02  8.3449307736341502e-02  1.7827979086783154e-02  1.4483792018103014e-02  2.6546916873600272e-02  1.9887286900715759e-02  1.9795778503377434e-01  1.6515992140406424e-01  6.7235016375270740e-02  6.1202252668017147e-02  4.4655559838231836e-02  9.4065108534768016e-02  7.3580590669419521e-02  7.8893854127624841e-02  7.4767814086165327e-02  7.5945854198558940e-02  7.1196112332651940e-02  7.7768265847669533e-03  1.0532619177980633e-01  2.8547478767270849e-02  3.0578749183348960e-02  3.9085074251112559e-02  3.7866227498565060e-02  4.1362514585819542e-02  7.5503705185535522e-02  8.2830100328853726e-02  6.08910284337