<?xml version="1.0"?>
<VTKFile type="UnstructuredGrid"  version="0.1"  >
<UnstructuredGrid>
<Piece  NumberOfPoints="1537" NumberOfCells="2944">
<Points>
<DataArray  type="Float64"  NumberOfComponents="3"  format="ascii">-0.9892088123068711 0.3562327500132301 0  -0.9899094703667614 0.2492726786665127 0  -0.9786862766747763 0.1428170341094301 0  -0.9560134409432322 0.03816136256695625 0  -0.9220823562154482 -0.06339819222028686 0  -0.8773127004795063 -0.1608417096901125 0  -0.8222208339290882 -0.2528104230420363 0  -0.7574119788799402 -0.3381308459271979 0  -0.6839713740723461 -0.4159574527061483 0  -0.6027105394960085 -0.4847452952577493 0  -0.5152461402940243 -0.5442187963242766 0  -0.4222609130701264 -0.5937281090371765 0  -0.3248158319987575 -0.6332286246702412 0  -0.2238264776548542 -0.6622906522993771 0  -0.1206049183122096 -0.6806629017098624 0  -0.01654588193877051 -0.6884466147761994 0  0.08664319526738387 -0.6839128953887087 0  0.1902298319552934 -0.6674305857765487 0  0.2916852195417067 -0.6404794120166063 0  0.3899051686988803 -0.6030384053387304 0  0.4838178140957927 -0.5556806508119752 0  0.5724267476736478 -0.4986086356950759 0  0.6547785248876076 -0.431949728008871 0  0.7300078901775026 -0.3565019848828538 0  0.7969392148120471 -0.2731315384093645 0  0.8545399721980608 -0.1827774276806257 0  0.9020509343724596 -0.08668924762155589 0  0.9388282423768408 0.01394736634760126 0  0.9643169857912591 0.1179242244063609 0  0.9783431079987647 0.2240906981002587 0  0.9807324546915155 0.3310352429136359 0  0.9712664885338471 0.4375958334063305 0  0.9501685253557577 0.5424252003220383 0  0.9178205859063795 0.6443769506434686 0  0.8744547514400671 0.7420553780417478 0  0.8207230894625362 0.8344392848900264 0  0.7571389675322425 0.9203974459013859 0  0.6845743831529496 0.9988945527406357 0  0.6037696769821886 1.068889587605579 0  0.5159897568777354 1.129965271018981 0  0.4220593709218976 1.181110126476282 0  0.3231091565399279 1.221711838335574 0  0.2203375678926411 1.251612397375125 0  0.1148821860507819 1.270256527417857 0  0.008118336066463722 1.277232728890888 0  -0.09875539242606239 1.272595630530893 0  -0.2045639783034327 1.256604702305533 0  -0.3080368200139176 1.229286578472594 0  -0.4079260322294951 1.19100740561388 0  -0.5030745711219121 1.142222262412296 0  -0.5923788722740611 1.083508609119086 0  -0.6748576245088627 1.015540087590062 0  -0.7494691348374932 0.9390182413471887 0  -0.8153588601877489 0.8548963544100979 0  -0.8717763201987671 0.7641340178838738 0  -0.9177939101294451 0.6676416059898802 0  -0.9529678354664746 0.5666703198664705 0  -0.9768712972638466 0.462436839501097 0  -2.763247150975326 0.09982496685707516 0  -2.763247150975326 -0.0998249668570745 0  -2.748840859812771 -0.2989544594165759 0  -2.720103385219153 -0.4965253418513251 0  -2.67718455108052 -0.6915075710627223 0  -2.620308116325111 -0.8828845999914263 0  -2.549770608347909 -1.06965867742304 0  -2.465939777054107 -1.250856049800939 0  -2.36925267758139 -1.425532037926432 0  -2.260213391696806 -1.592775962078687 0  -2.139390399747858 -1.751715889877113 0  -2.007413616869184 -1.901523182133063 0  -1.864971108896723 -2.041416812990869 0  -1.712805505111049 -2.170667441835012 0  -1.551710126512166 -2.288601215734377 0  -1.38252484981114 -2.394603282599428 0  -1.206131728701838 -2.488120996736289 0  -1.023450395241376 -2.568666800085512 0  -0.8354332653143993 -2.635820764124031 0  -0.6430605731776671 -2.689232779178047 0  -0.4473352609725152 -2.728624379732748 0  -0.24927774984894 -2.753790196222566 0  -0.04992061996219955 -2.764599025733002 0  0.149696772921987 -2.760994516031861 0  0.3485337161471359 -2.742995459363711 0  0.5455535659599188 -2.710695694475809 0  0.7397291520906706 -2.664263617386329 0  0.930048132943575 -2.603941303445498 0  1.115518273476986 -2.530043245266807 0  1.295172618257497 -2.442954713108143 0  1.46807453271783 -2.343129746251068 0  1.633322586335784 -2.231088785850231 0  1.790055252275576 -2.107415961594173 0  1.937455398989848 -1.972756046323609 0  2.074754550365193 -1.827811094484383 0  2.201236892200771 -1.673336781940672 0  2.31624300413212 -1.510138466230922 0  2.419173297543587 -1.339066987806569 0  2.509491141545745 -1.16101423414388 0  2.586725660720373 -0.9769084898556359 0  2.650474190046849 -0.7877095970449834 0  2.700404374211121 -0.5944039511331626 0  2.736255900352425 -0.3979993582505018 0  2.757841855214004 -0.1995197810019114 0  2.765049699622282 0 0  2.757841855214004 0.1995197810019115 0  2.736255900352425 0.3979993582505002 0  2.700404374211121 0.5944039511331618 0  2.650474190046849 0.7877095970449833 0  2.586725660720374 0.9769084898556343 0  2.509491141545746 1.161014234143879 0  2.419173297543587 1.339066987806569 0  2.31624300413212 1.510138466230922 0  2.201236892200772 1.673336781940671 0  2.074754550365193 1.827811094484383 0  1.93745539898985 1.972756046323608 0  1.790055252275578 2.107415961594172 0  1.633322586335784 2.23108878585023 0  1.46807453271783 2.343129746251068 0  1.295172618257496 2.442954713108144 0  1.115518273476987 2.530043245266806 0  0.930048132943575 2.603941303445498 0  0.7397291520906699 2.66426361738633 0  0.5455535659599182 2.710695694475809 0  0.3485337161471366 2.742995459363711 0  0.1496967729219871 2.760994516031861 0  -0.04992061996219764 2.764599025733002 0  -0.2492777498489387 2.753790196222566 0  -0.4473352609725151 2.728624379732748 0  -0.6430605731776653 2.689232779178047 0  -0.8354332653143988 2.635820764124031 0  -1.023450395241375 2.568666800085512 0  -1.206131728701839 2.488120996736289 0  -1.382524849811142 2.394603282599427 0  -1.551710126512165 2.288601215734377 0  -1.712805505111049 2.170667441835012 0  -1.864971108896722 2.04141681299087 0  -2.007413616869183 1.901523182133064 0  -2.139390399747859 1.751715889877113 0  -2.260213391696807 1.592775962078687 0  -2.369252677581389 1.425532037926432 0  -2.465939777054107 1.25085604980094 0  -2.549770608347908 1.069658677423042 0  -2.620308116325111 0.8828845999914271 0  -2.67718455108052 0.6915075710627218 0  -2.720103385219153 0.496525341851327 0  -2.748840859812771 0.2989544594165766 0  0.08062850130418842 -1.723593345470646 0  -0.927704648759176 -1.480668937304442 0  1.077633461788306 -1.380305332064683 0  -0.005933530287117739 0.2952625249148622 0  -1.639909199931241 -0.7587027873112584 0  1.689990156407255 -0.646681771312358 0  -1.873289640736773 0.1355256604603041 0  1.862563573986048 0.2578344770064886 0  -1.697343296031626 0.9435145166074519 0  1.637020667761319 1.047873747874578 0  -1.177206403807602 1.608042421098475 0  1.118655023329655 1.649892723284709 0  -0.4471375430115047 1.965779378866952 0  0.3268437402325854 1.993658617527268 0  -0.5250879928991066 -2.023645597921425 0  0.783127836486699 -1.965502659590801 0  -1.577396642429492 -1.409305996712939 0  1.679077651003911 -1.374815462361492 0  -2.142119248216392 -0.4715161022171688 0  -0.2754384249695357 -1.25141724052862 0  0.4708651599721726 -1.237514936909911 0  2.152230715585751 -0.2661521992205619 0  -1.022821503102722 -0.8986414315774787 0  1.121457941639477 -0.7945063821209086 0  0.202450180269674 -2.236482485853493 0  -1.047014864841517 -1.989895600325626 0  2.09231408872825 0.7506383656091722 0  1.285311755252787 -1.851526150148513 0  -2.14062855550716 0.6361856543306794 0  1.404940048129656 -0.2134299843974831 0  -1.453866824133453 -0.2325798191571029 0  -1.979426703286541 -1.119629819367995 0  0.4787936328746109 0.3930184959360148 0  -0.4958971762266025 0.3527443882925657 0  0.01354986153597879 -0.196859477242282 0  0.152426553372888 0.7606754475499357 0  -1.689195472921569 1.472960873158074 0  1.62610848449177 1.562655516865588 0  2.029404172815804 -1.01591717135017 0  -1.489293399788965 0.4750585845521361 0  0.8346997373565159 2.094938370591094 0  -0.9441333467763486 2.056217404191695 0  -2.303797565172113 -0.03686981516843654 0  1.432475020886616 0.4248650704143712 0  2.305780951640394 0.1607918682770196 0  -0.07084925991357494 2.276837053864247 0  1.170144734757236 1.170050046568577 0  -1.234464419009768 1.117035417536165 0  0.6342028082453606 1.617822406922182 0  2.038500376962833 1.165526579652269 0  -2.100084529528353 1.051063239883605 0  -0.6804973534079441 -1.141483598014522 0  -0.6605824388069135 1.566598608178492 0  -0.05125114942426146 1.732755815115436 0  -0.3275326805758367 -1.661044082035395 0  1.480371838468836 -1.007688849561435 0  -1.146482239001705 -0.5061616914422733 0  0.7141941667532238 -1.56410627550067 0  1.284770151445647 0.7916350160468004 0  -0.2929530743651494 0.749360980835972 0  0.7179622190843499 -0.9011688123338586 0  0.4240069749467633 -0.04228676252143498 0  -1.276983378152547 -1.667424359252581 0  -0.4070540787260238 -0.0758179064275058 0  -0.2183266041640556 -2.324932876669069 0  -1.509134524336897 1.828306803267009 0  1.422723013522039 1.899106129232985 0  -0.6430907925474849 2.29975383076733 0  2.253936868226305 -0.6677569191272229 0  -1.229060461969974 -1.231131590217513 0  0.294844994360854 2.369567174393648 0  1.775758887277965 -0.2798541473566923 0  0.09947508269896727 -1.339038499429843 0  0.4411529445302202 -1.817614257788009 0  1.718864193231728 0.6759204955898926 0  -0.939418774693044 1.331471159133655 0  -1.776306139714321 -0.4145167447022123 0  -1.352233627371045 0.1272142382782633 0  1.058469530696701 -2.18350964580512 0  0.5875642902808371 -2.304084770844632 0  0.8492489321682576 1.330590109691433 0  -1.625328372915773 -1.768970206268763 0  -2.377203138367645 0.3457736987902119 0  0.2791970510910233 1.602059426745327 0  -1.266504194601065 0.7581885611201007 0  -0.8029147257800329 -2.267553071233167 0  -2.240557933134157 -0.8407034239854911 0  0.2096440723672642 -1.011989869420139 0  -0.77176228267725 -1.785796083374197 0  -0.1668547133177886 -1.975539733566673 0  -1.799612170567467 0.6176676693522245 0  1.634291159543946 -1.788912136225545 0  -1.926082285503887 -1.46941408598634 0  1.637802510528009 0.01826879592677708 0  -1.65133671518621 -1.08810562159201 0  2
[...]
<PointData  Scalars="f_5009-1"> 
<DataArray  type="Float64"  Name="f_5009-1"  format="ascii">3.6116226826470521e-01  3.4316414552313523e-01  3.3919341129080138e-01  3.4694917720598323e-01  3.4467221087864003e-01  3.4932279580805098e-01  3.3600665092832122e-01  3.4688541836109082e-01  3.7370165215142581e-01  4.0859485053964334e-01  4.3574621695075338e-01  4.3256684463877282e-01  4.3334419823897419e-01  4.1633699193654700e-01  4.0684175909885995e-01  2.8816464675184333e-01  3.5830944885266602e-01  4.4480598243276021e-01  4.5755694283760628e-01  4.3466708724012637e-01  4.2830176222548677e-01  4.3044704983556292e-01  4.0901501574861748e-01  3.4699241834853956e-01  3.3773523877424588e-01  3.5927339761682081e-01  3.4685156692130081e-01  3.3898357458901507e-01  3.5680367705131305e-01  3.4747291568048816e-01  3.4732093906095568e-01  3.5496029211479285e-01  3.5594304574315239e-01  3.4527177699516609e-01  3.5343402869150037e-01  3.5584012723086483e-01  3.7195664732409583e-01  3.5918882486850179e-01  3.5366964607441304e-01  3.6721575968794840e-01  3.6187765290861162e-01  3.7064386955319190e-01  3.7317480856890145e-01  3.7701981251562056e-01  3.5390119593017694e-01  3.6137789340685950e-01  3.7284135442589933e-01  3.7927752570139778e-01  3.6950693103559068e-01  3.6290448195288022e-01  3.6415176602337329e-01  3.7535319954347207e-01  3.6128508452806041e-01  3.4999255796887013e-01  3.6932653328053383e-01  3.5756876618967620e-01  3.5635775963411787e-01  3.5582946523366349e-01  -7.0378790478402373e-03  -1.0340388664446814e-02  -1.0118204363305764e-02  -1.0564787882744460e-02  -2.1396204931969445e-02  -7.0723174489075828e-03  -1.7619384397570895e-02  -9.4898379787958342e-02  -1.3732079869022727e-02  -5.7321172493830985e-03  -6.5057801577785880e-03  -6.5909319590347912e-03  -2.3826397395679471e-02  -2.9216375899142957e-02  -7.0570213454229543e-03  -7.4297060003829310e-03  -8.4173371277226530e-02  -9.1864852425256101e-03  -2.5673000512691515e-03  -3.0632138268394710e-03  -6.9594631635931476e-03  -6.8882894365096883e-03  -9.4610605532549630e-03  -7.8105908387941340e-03  -8.3582774125779899e-03  -6.9650411933804331e-03  -1.8057992100584862e-02  -8.4343269546143435e-02  -7.4046901620423614e-02  -6.7528993071199736e-02  -7.6835756214574365e-03  -8.6732850024355303e-03  -6.4332068445215312e-03  -9.8567534513718477e-04  -3.0483767558302710e-03  -2.4198945103681604e-04  -2.7351758074164866e-02  -1.4388884102261993e-02  -9.7756554389076857e-03  -5.5543453328581764e-03  -9.2839101538883372e-03  -1.3881264575516439e-02  -1.8259405508349019e-02  -2.0314692877995501e-02  -1.1877360921599550e-02  -1.6919624709904112e-02  -8.6733410316415308e-02  -1.4751425037419868e-02  -1.4182185344968914e-02  -9.8140465121490467e-02  -1.4275669061708256e-02  -8.3828399311091893e-03  -2.5887678603186610e-03  -2.6808343985320685e-03  -1.0715803787174282e-03  -5.9523803810603345e-03  -7.9585081020942722e-02  -8.5363830286599870e-02  -3.9414166908026127e-03  -4.6715895724272629e-04  -1.3856807009558943e-03  -6.9123853832047603e-04  -1.2242092859022200e-02  4.2071087198053102e-03  4.9996830309696351e-05  -7.1092108537753926e-02  4.9783192311472126e-03  -1.9747366877565166e-03  4.1257061632883336e-04  1.3430628414179999e-02  7.6352113029584685e-03  9.1106413606122484e-04  -2.5591778096954233e-04  1.3620075592883135e-03  -7.1701391075511350e-02  -2.1264243460328593e-02  -7.4624859180326053e-03  -1.1601490732098639e-02  -7.8462980042235189e-02  -8.1558679065795361e-03  -1.0348648233787922e-03  -1.5868062351333385e-02  -2.5444477001611145e-02  -1.5370428641525895e-02  -1.6820569850735951e-02  -1.3111616096467285e-02  -1.1517049246692669e-02  4.8055533552648438e-02  4.7577244281185156e-02  4.8887493583952966e-02  7.9760772747597330e-01  4.1107788877820364e-02  4.1385760061387361e-02  4.0605734523154371e-02  4.0447273100265232e-02  4.6445689771273842e-02  4.6206065570191066e-02  5.4137099159071528e-02  5.3263712611111021e-02  5.9125776807319279e-02  5.8406017745799656e-02  4.9642626213993360e-02  5.0243482877811968e-02  4.4684427229973428e-02  4.5271092265755354e-02  3.8651853695090305e-02  2.8795856281058286e-02  3.9362338688279125e-02  3.8955683475297105e-02  4.5216902913511429e-02  4.4857718050013172e-02  4.9194893323026567e-02  4.7588607403266356e-02  4.1616340829738030e-02  4.8133361250693146e-02  4.1793564937775071e-02  3.5207797998861041e-02  3.5650107569244298e-02  4.0157452600062080e-02  7.8265908891409863e-01  7.8411333339401967e-01  7.8125005810596526e-01  7.7761287173977511e-01  4.9039191117184903e-02  4.8279016791769380e-02  4.0762795292954734e-02  4.1042230383840805e-02  5.5144986736342438e-02  5.5828959317923928e-02  3.7832332574189990e-02  3.7635392395215725e-02  3.7776049348350334e-02  5.7917542139026126e-02  4.7715829343427787e-02  4.8216640096576134e-02  5.5943071837401062e-02  4.2713078435546663e-02  4.3086157868311596e-02  4.6878896979319504e-02  5.7235107864033283e-02  5.7420501241947447e-02  4.7273331284273690e-02  4.5056357135061009e-02  3.3221422464132323e-02  4.8918063112095671e-02  4.5736025512916230e-02  7.7610098335234989e-01  5.3976186180165031e-02  8.1194731007116894e-01  4.7207948059175303e-02  8.1179371736803618e-01  4.7736835117990067e-02  5.0340514473634912e-02  4.9448547767763293e-02  5.5640496580449561e-02  3.7600863437569444e-02  4.6110449013100178e-02  5.5782988546982944e-02  3.9547447671425505e-02  3.0826982459062714e-02  5.0240565924371011e-02  4.3015935590607957e-02  5.3474674843907159e-02  3.9615974027208067e-02  3.6000811393611068e-02  4.6403259134133172e-02  4.7563978728140492e-02  4.8363264168820169e-02  4.2840054533238164e-02  3.7539328451125231e-02  5.1589395672014447e-02  4.2607270070150881e-02  4.6051680372056508e-02  3.6660466834862189e-02  2.1238747566110324e-02  4.9235151235519768e-02  5.0162434143953723e-02  4.3621316674874164e-02  4.4155258872052433e-02  3.9829600030484386e-02  3.8297076969698217e-02  4.3035472215841829e-02  4.0236083977550928e-02  3.9726629862858243e-02  3.9238994948362277e-02  5.0056797148631094e-02  2.8723747909595563e-02  4.1245150939591461e-02  5.6494556344251358e-02  3.4634528739515641e-02  3.1931778034816408e-02  4.4992417333361796e-02  3.7213544646714836e-02  7.6372986257286923e-01  4.8017595573395903e-02  5.0438581958056568e-02  5.0909427276069535e-02  4.3525891190360662e-02  6.1888499405941079e-02  4.8040802239662145e-02  3.4888508304067367e-02  5.3877075584891798e-02  4.0052233097640569e-02  5.3784244222624095e-02  4.8916242509821746e-02  4.0229974560984087e-02  3.9768656704993861e-02  3.9321860250860199e-03  5.0683230977097947e-02  4.6878471143272975e-02  4.9244538775097733e-02  5.4478447203444642e-02  4.4690812283453236e-02  4.8480826694997779e-02  4.4540111482608807e-02  4.3383816591342134e-02  4.4637898682017903e-02  3.8497584543422628e-02  4.3498403505696073e-02  4.1131521230415691e-02  7.7107744921984755e-01  3.5295695450680044e-02  7.6494445967344571e-01  4.1846042718520556e-02  5.6559765455143116e-02  7.7150472902955602e-01  8.5635157309521348e-01  8.5428675323983239e-01  7.7350609916872815e-01  3.8017765744052266e-02  3.5541382426480958e-02  3.8547374542073999e-02  3.5273244376725424e-02  4.7029047519663122e-02  4.0856186163284416e-02  5.0413500221073770e-02  4.2986772095698948e-02  4.7488061865548103e-02  3.8651024778662772e-02  8.0003325502597555e-01  7.9914969338538810e-01  5.9385058608350055e-02  4.4102099599619270e-02  4.0064653449945316e-02  7.8772895682897937e-01  5.1714869344918028e-02  4.1888254403116353e-02  4.4664741784614277e-02  4.5954583465773073e-02  5.3611699398312250e-02  5.5502698243246829e-02  5.7154223440639050e-02  4.4468603999684372e-02  5.0495957834922688e-02  4.5057306111611663e-02  4.2886258377127603e-02  4.6113048929604494e-02  4.4119244393346288e-02  3.3248705998737298e-02  4.2527017628051382e-02  3.6478442269235807e-02  6.5828645338346398e-02  4.8543811839358360e-02  3.1622976180897558e-02  5.2480480697847505e-02  5.0394241785008752e-02  5.8950168556191999e-02  5.0942524643419085e-02  4.4611332358128045e-02  4.1456299841892773e-02  4.4401445261508111e-02  5.8031938023978914e-02  5.0306688561704421e-02  3.6552531433655708e-02  5.8236824919955819e-02  7.5471354733816565e-01  4.9077640690620213e-02  3.5323803956884448e-02  6.3395981811119551e-02  4.3252590684054862e-02  4.1053823525535861e-02  7.5265181991374530e-01  4.9152381827593503e-02  3.8918734367882603e-02  7.8826072391712076e-01  4.7087695090814764e-02  7.4534694429336001e-01  7.8962664979628383e-01  8.0834116151702151e-01  3.3657286556211544e-02  5.2051506674627643e-02  5.8431088678164614e-02  6.3746374128943614e-02  4.7903823946809858e-02  5.3136442162329933e-02  7.8217180028872635e-01  4.8811927835413549e-02  5.1712465743424592e-02  4.6484253740633114e-02  5.3699557090450760e-02  5.9092991108606961e-02  3.5999015181178373e-02  3.3615655191388809e-02  5.7863730854794043e-02  4.1287711398087706e-02  5.4402425387696483e-02  4.2667610528632965e-02  4.2597594361148447e-02  4.0773618973181235e-02  8.0086620670375253e-01  5.7112534378947220e-02  7.4289746067853979e-01  4.9127824634139658e-02  4.2526472388607427e-02  3.2741213272219662e-02  3.8308738787708407e-02  4.4407195025269477e-02  7.6031552552200246e-02  4.9262845372415785e-02  3.9077206248630231e-02  5.9224699786007182e-02  5.7647567054900956e-02  4.2813315908244470e-02  4.2716024606859686e-02  4.3221086298559225e-02  3.8419122402526810e-02  3.9896681016047687e-02  7.9351267769603917e-01  6.3621960242551109e-02  7.6167197029365519e-01  4.6914729370264870e-02  3.2273473053098495e-02  4.9660730972326081e-02  3.9319799662400567e-02  4.2169029284739167e-02  5.2325367669780645e-02  4.6582001677582155e-02  3.2872842288557615e-02  4.4829773182780711e-02  3.8612029662773301e-02  4.1267260053737390e-02  3.8300908894868008e-02  4.7341932034100323e-02  8.2132660238488842e-01  3.7384027564428775e-02  4.9256366554310600e-02  3.9095393932226573e-02  8.1641742468509471e-02  4.8736510774950462e-02  8.4483389197224368e-02  7.0524320862274670e-02  4.6663029649786462e-02  7.5877357704642112e-01  5.0923633859044914e-02  3.8476286533441463e-02  5.5469209225359493e-02  5.9093195674339023e-02  4.4596845042926603e-02  4.9739126383344011e-02  4.5500292323061173e-02  4.0491614134538084e-02  8.0695672131317675e-01  3.9473666052302819e-02  4.5149262405092344e-02  4.9499410687728680e-02  5.1782459189216937e-02  3.7637785993810777e-02  4.6198706474855404e-02  4.5331636059645151e-02  4.4692928953641006e-02  3.8471955169923078e-02  4.1180022252662742e-02  4.8546401033204317e-02  4.2328187451506773e-02  4.9720438027775662e-02  3.4004378617513840e-02  3.9608798113005585e-02  4.0043699460788583e-02  7.4670964348479751e-01  4.2267915326582625e-02  4.2751722992861868e-02  7.6872112777220092e-01  4.3030344592841697e-02  5.0342376831039072e-02  4.8436771028480416e-02  4.4673906980348017e-02  3.7468807841005231e-02  7.9513515276123847e-01  5.1480157857462572e-02  5.1351911142212284e-02  1.5179638314404862e-02  3.9287459343735252e-02  4.8081979794248782e-02  4.0509891597668955e-02  7.9382140263028023e-01  5.3492662717483465e-02  3.1050993783814988e-02  4.5569575280037002e-02  4.7480717496439617e-02  7.7482201609301263e-02  9.7298411566960327e-02  3.9262162853291357e-02  5.8484787973415109e-02  7.7872649709494479e-01  4.9625807640451020e-02  4.8714853581277334e-02  5.2243954588875777e-02  5.0469615324787151e-02  4.0100210997499788e-02  4.1587843133104700e-02  4.8584412148954946e-02  3.9069844850511459e-02  5.0796893394450787e-02  4.2363036135557426e-02  3.4858493448480389e-02  4.2923934451283598e-02  3.3622013855583055e-02  7.6800357869283431e-01  3.9239967840910751e-02  5.0773498186388072e-02  4.5873474685495082e-02  7.3334427636602528e-02  3.9449368874888487e-02  5.3245561705372389e-02  2.9893897378591858e-02  3.7443258742330281e-02  5.0143495770531538e-02  4.9868734443672597e-02  3.4185871184500144e-02  7.8068962506194739e-01  4.2124283249131880e-02  7.6436262259144558e-02  5.0308637436698944e-02  4.8417842888964127e-02  3.9844007630745547e-02  4.0245616663925017e-02  3.8013333220849141e-02  3.8717717956593026e-02  5.3308193242344475e-02  3.7686722650208698e-02  3.9611918862557258e-02  3.1867841095893662e-02  3.7856211230222640e-02  3.5303780514602909e-02  5.0622181009143861e-02  4.9417651630544165e-02  4.6965149782118527e-02  3.9729736689907653e-02  3.9772031606243548e-02  3.8461615986998009e-02  4.0628831334162237e-02  4.6703621307256075e-02  3.5470900774734263e-02  5.7290846865159610e-02  4.8052080696896739e-02  7.8346775337651775e-02  8.4778165814755646e-01  3.4381347598405693e-02  4.9518210882226514e-02  4.0892709205436716e-02  4.6934835110317735e-02  3.3005730373324493e-02  4.4883439595596576e-02  4.1113136351038401e-02  3.8568312891945913e-02  3.7178037613959311e-02  4.5398096841898793e-02  5.7692596131642952e-02  4.0408903669500597e-02  -3.9401605935479231e-04  7.9001391801260534e-01  4.1554235182500066e-02  4.2367057126286210e-02  6.1588404335373693e-02  5.0279587870535034e-02  5.5977270950010587e-02  9.6949801642153735e-02  4.2401492490467339e-02  1.2819860094126323e-01  3.7982039786116695e-02  3.7610636981640640e-02  4.5825690121100833e-02  3.3822347075904521e-02  4.7056407118835047e-02  1.0259140472227797e-01  5.6653971466209103e-02  5.0220554912701158e-02  3.0458146224725466e-02  3.9225812441836296e-02  3.8559339051970377e-02  4.9556135043437241e-02  4.9616839362288979e-02  3.9668788250213589e-02  5.9012338639895315e-02  7.1426298528057497e-01  7.1412319237280708e-01  4.6412647432198660e-02  1.0701408181142123e-01  7.9508179740692586e-01  4.9003328962503791e-02  4.2180961468643391e-02  5.7055072362951209e-02  3.0936881544434344e-02  3.5630839301513319e-02  5.5261021640643407e-02  2.9868529301595427e-02  3.5598390686008036e-02  4.7961072698548608e-02  1.0988699036755024e-01  2.0362408072699761e-02  8.7936161420105213e-02  3.9976037884480259e-02  4.9873981806122930e-02  4.9612348888786066e-02  4.8889902144325717e-02  3.9202644154863658e-02  4.6232466587694220e-02  9.5549414420751363e-02  4.3011603156052944e-02  4.4977676792651196e-02  4.2849982101600514e-02  4.0492793858930835e-02  4.6044874630985014e-02  5.3763872738405515e-02  5.1450777421060322e-02  4.3181478736584296e-02  4.0421995250821893e-02  3.4119060110072451e-02  4.8473608376985229e-02  3.2213422203072155e-02  4.8878546076460930e-02  4.4623867080815914e-02  -2.8398030646092265e-03  7.1308605703693284e-01  7.2741154219299142e-01  4.9695099206781911e-02  2.9698486489593119e-02  4.5414039651590757e-02  5.3361704854224069e-02  4.1631189514014108e-02  5.7584626819418124e-02  4.6047029458993124e-02  6.9229735038294959e-01  5.8644281910831889e-02  5.5859839260420908e-02  4.1041723592796030e-02  7.0735837096174592e-01  3.9819050334348134e-02  4.5043025413157384e-02  4.2304589402461006e-02  4.7034044991894605e-02  5.3870668029997661e-02  5.5697024229293075e-02  1.2417976318102593e-01  3.1497589059029260e-02  4.8103328799985419e-02  3.9997886801309147e-02  3.9223568946429817e-02  3.6178227131658955e-02  7.7529570764795319e-01  5.5706454451914980e-02  4.8399464709205905e-02  4.2084273579298774e-02  4.1979408438822419e-02  1.2650550704303634e-01  3.5346588301815716e-02  7.8532836685108764e-01  5.6895006390631095e-02  3.7887713787165045e-02  3.8994661640166170e-02  3.9506211213560634e-02  4.6087858669510026e-02  4.3944553509966608e-02  4.7476202457824773e-02  4.5570651351574683e-02  3.9371861334268503e-02  3.9003078958837138e-02  4.3246471172960425e-02  4.6434040113527031e-02  4.6845841507555948e-02  4.1232311636962317e-02  4.9464924222224115e-02  4.5833280448419812e-02  4.8562930908410795e-02  8.2369488582138561e-01  6.9346487690945036e-01  8.1539452950195535e-01  5.3293161060346109e-02  1.1880441071613101e-01  3.6433847048631056e-02  5.9125552459229049e-02  3.1846085946192822e-02  6.8170216938828676e-01  4.7520318302422128e-02  3.7441837589527696e-02  3.6417919456526622e-02  4.0157784274870253e-02  4.3507822503897862e-02  3.0819194793930877e-02  4.2796676284802639e-02  3.7836696480124679e-02  4.8156937281048889e-02  4.6499318194480811e-02  4.9431429424880172e-02  5.0199913054193170e-02  3.7141502998133707e-02  5.6118132150276397e-02  3.9453507774183307e-02  7.0940818713828213e-01  7.7468694841672259e-01  2.9894776101721088e-02  3.7198582087477727e-02  3.6007639802936392e-02  7.7650402406137409e-01  7.2614423594844144e-02  4.8205889597017659e-02  4.4494811686341326e-02  3.3438022333459549e-02  4.0262043318389458e-02  4.9229789142501305e-02  3.8799558588197100e-02  8.0706131032180206e-01  6.8432591490538608e-01  4.6725253492379368e-02  5.1657562726487007e-02  3.0576214679647572e-02  4.3765744903748648e-02  3.7671412082307967e-02  8.2814541863166935e-01  3.7875037693944971e-02  3.8568649567520881e-02  4.6173037627347306e-02  8.1554257882473680e-01  5.4784709995126350e-02  8.4953737546836539e-01  4.0887409612333586e-02  4.9327249868707165e-02  4.7758614797374435e-02  4.8932834862394019e-02  7.6869583925910479e-01  3.7286095004854032e-02  4.4899250150425667e-02  3.8156705288482341e-02  4.5754605658484847e-02  4.6065328040656411e-02  5.7802769048652752e-02  5.8858228135526547e-02  7.7181230769411113e-01  4.4292400523799229e-02  4.0692460843028001e-02  7.7059771836062640e-01  5.7296122104929875e-02  5.1740252151182740e-02  5.4103918543971757e-02  4.4070546845789996e-02  5.6858583107196263e-02  4.0050143989551555e-02  3.9606583474747527e-02  3.4497679655986963e-02  4.7515163701218804e-02  5.0116948312234150e-02  7.8430371282789380e-01  3.3408926508913028e-02  4.0556826260946477e-02  4.6406944115049538e-02  8.3608116932253174e-01  3.6755753694672731e-02  4.5474343748812970e-02  4.6729306915864757e-02  5.0010580143838433e-02  5.5815746651975168e-02  4.4221041173641888e-02  3.7034335786377728e-02  5.0145630483287379e-02  3.9139409208802753e-02  4.8761876876952201e-02  8.3376696653573124e-01  5.1030503448661911e-02  7.9062914143436691e-01  3.0585658895930352e-02  4.6541320579850824e-02  4.8671257736456752e-02  4.4754533023695718e-02  3.1942480961063939e-02  4.8036353944573139e-02  5.6300325905942306e-02  1.0159045739161365e-01  4.8289125143634794e-02  3.9649973401299450e-02  4.8613771718368594e-02  3.2660694758977621e-02  4.8013391444537118e-02  3.8441368395594075e-02  4.1934186522691513e-02  3.2123750177865798e-02  5.9296869488393605e-02  5.4492745789970820e-02  5.3356531499599874e-02  5.5738666584951815e-02  5.5289240066827970e-02  3.9507159125238799e-02  4.5626697637538988e-02  7.9608592065485795e-01  7.9109894640223266e-01  4.5922270860000336e-02  3.9614923310128343e-02  4.0714238492651204e-02  9.9317672177761593e-02  4.3115381329339987e-02  4.3965431507203202e-02  3.7277127723927925e-02  4.7551375285494725e-02  3.6557230197972551e-02  3.9292462814197959e-02  4.3320289189510093e-02  3.7618096198966521e-02  3.6437876457757749e-02  4.5918618053982577e-02  3.9507950904817152e-02  4.1000473390771279e-02  3.4276388913938485e-02  5.6458746143718069e-02  4.0608468486307031e-02  5.9336477557356111e-02  5.4938749004678517e-02  5.6301186604997132e-02  8.3210217078762139e-02  3.8392619939592587e-02  7.9256875775319291e-01  7.9846348841396797e-01  7.9593860023218244e-01  8.0305389479802869e-01  4.1877494858922823e-02  4.4321835082005004e-02  4.0678499814613384e-02  5.7868119418966676e-02  3.7085236671435193e-02  7.8171657893640012e-01  4.3214680930814250e-02  4.4763311123655468e-02  4.1466029387964336e-02  4.3750731088341259e-02  4.2589516021625917e-02  4.1399158712602059e-02  6.7206904563736147e-01  3.9514243992353926e-02  4.0127982040434405e-02  4.4371916081871021e-02  4.7960884069543894e-02  4.1024321011825071e-02  7.7788461818671495e-01  3.5949851300967180e-02  3.8726752151137092e-02  3.5910020626454250e-02  4.8887530466816972e-02  5.1371194839610633e-02  3.1502035723160779e-02  4.9091978444388756e-02  5.0549820698816937e-02  4.8631287858401276e-02  4.0764695608465150e-02  3.3400531858066344e-02  9.4862869421511883e-02  2.8195871684660843e-02  3.3871320956866242e-02  4.1718712925371333e-02  4.8106452339649497e-02  4.6858106865520742e-02  8.