<?xml version="1.0"?>
<VTKFile type="UnstructuredGrid"  version="0.1"  >
<UnstructuredGrid>
<Piece  NumberOfPoints="821" NumberOfCells="1550">
<Points>
<DataArray  type="Float64"  NumberOfComponents="3"  format="ascii">-0.954010200432968 -0.01688758808637258 0  -0.9509752757520111 -0.123947924579896 0  -0.9354930958256928 -0.2305234021125383 0  -0.9075750329298961 -0.3344266025956825 0  -0.8683255251099439 -0.4330615105324631 0  -0.8187385955070063 -0.5253478906481693 0  -0.7614950921354942 -0.608441160920384 0  -0.6994947145975077 -0.6810060750140412 0  -0.6318351750421364 -0.745497625380184 0  -0.5591586414999881 -0.8023750276819193 0  -0.4824156208403535 -0.8513304629752395 0  -0.4013974175043611 -0.8929764331069665 0  -0.3165478007435377 -0.9268238131573892 0  -0.2307531298663802 -0.9520060784143476 0  -0.1416012063472347 -0.9695134255680256 0  -0.05107738337315162 -0.9786288354779745 0  0.03982127712120818 -0.9792533452606229 0  0.1301475072676682 -0.9712646256769363 0  0.2200088167181269 -0.9548155668937315 0  0.3073719996738833 -0.9301159078164146 0  0.3916575715124923 -0.8975426642855575 0  0.4733890448269871 -0.8567775403111014 0  0.5506177276419805 -0.8086541395417057 0  0.6231313899241586 -0.7532579623014528 0  0.6914696807249422 -0.6897396209951022 0  0.7545077946321903 -0.6177903009928709 0  0.8128573173053186 -0.5353999575570356 0  0.8628661631856469 -0.445324714266595 0  0.9037822953894177 -0.34660073414827 0  0.9330833724903339 -0.2430908180868974 0  0.9500294873038675 -0.1372958132001755 0  0.9544728251501857 -0.02953196628852523 0  0.9463341888304395 0.07810926473008854 0  0.9256346087743806 0.1842062591361341 0  0.8930408802785664 0.2864445626602071 0  0.8486144980787046 0.3848488211914033 0  0.7925000713667676 0.4783194589879358 0  0.7265210861416156 0.5639547120228696 0  0.6508403461651802 0.6418134567596501 0  0.567004421592877 0.710474658992256 0  0.4754321648627749 0.7695139097073406 0  0.3785172585446094 0.8172699567794994 0  0.2759227270400046 0.8544486852996939 0  0.1693710993301454 0.8798416386847734 0  0.06128449106034661 0.8928760191717494 0  -0.04745235710182601 0.8935359027600066 0  -0.1570112067860006 0.8819045874446687 0  -0.2629588733527485 0.8582487741993047 0  -0.3655907328676153 0.8228235979662206 0  -0.4639149209439252 0.7759089594850003 0  -0.5565105256791358 0.7178918426684594 0  -0.6407822725827285 0.6508005296210315 0  -0.7172835422525782 0.574402165996572 0  -0.7850552631724838 0.4889685958708127 0  -0.84231966569574 0.3965933119329247 0  -0.8878914417929377 0.299594840218859 0  -0.9225908514712883 0.1958727710303793 0  -0.944549691385849 0.0904335454908068 0  -1.953241397409998 0.09753148341218226 0  -1.953242204969537 -0.09753846416485476 0  -1.933870866927744 -0.291101194717125 0  -1.895138409729862 -0.4825569941676034 0  -1.837670196162849 -0.66886711591134 0  -1.761824351327196 -0.8488677834426105 0  -1.668756157147587 -1.019755309537776 0  -1.559144229732654 -1.180543428860765 0  -1.433353238759691 -1.330457495406038 0  -1.294039378510264 -1.466329579176783 0  -1.141910017377714 -1.587659733283543 0  -0.9778076831114813 -1.693614466707997 0  -0.803996662233349 -1.782754003581628 0  -0.6229011287796189 -1.853826555989834 0  -0.4351750829165732 -1.906650043947011 0  -0.2431754642981706 -1.940504500040202 0  -0.04876290230838572 -1.95507459605219 0  0.1461968125088516 -1.950204927182067 0  0.3392244238874161 -1.926018370779846 0  0.5296678607922549 -1.88253551651353 0  0.7148363175689514 -1.820337760955872 0  0.8921599547120441 -1.740323889805241 0  1.061046528849792 -1.64282446638535 0  1.219381103756362 -1.52898348399362 0  1.365244975944001 -1.40025683747378 0  1.498083692024753 -1.257054065652914 0  1.615811690348851 -1.101646804387323 0  1.717458977987849 -0.9352796585292823 0  1.802049032836229 -0.7596270919114028 0  1.868731128664162 -0.5764211471032431 0  1.916958824326497 -0.3871446855038518 0  1.945951896732167 -0.1947247307074761 0  1.95566132037823 -0.0003764342066659838 0  1.945907717752231 0.1947134892355131 0  1.916814980206064 0.3878675257766549 0  1.868789994529847 0.5764412104224348 0  1.802242084591897 0.7593079641764736 0  1.717331822127564 0.9356261652218986 0  1.615858021695195 1.101669005966459 0  1.498365753264991 1.256794554171042 0  1.365202149311717 1.400301619861523 0  1.219677045131668 1.528719537930638 0  1.060725432119256 1.643013275749273 0  0.8922477405889252 1.740285421977172 0  0.714487515340394 1.820500392520602 0  0.5296825265125317 1.882589748714571 0  0.3395569606372065 1.925978804276671 0  0.1465265621133434 1.950171987272548 0  -0.04874978623936997 1.955015235095927 0  -0.2431771714752966 1.940457719797588 0  -0.4356109013457819 1.906532992559647 0  -0.6224311324834582 1.853969149102572 0  -0.8043333663767858 1.782569235666949 0  -0.9781606026633242 1.69346984723873 0  -1.14161505358967 1.587890662415744 0  -1.293760999646101 1.466567141700751 0  -1.433571843598333 1.330158596536999 0  -1.559155153903673 1.180535023899405 0  -1.668740269929269 1.019794867479576 0  -1.762011090095531 0.8485373823930626 0  -1.83775262126972 0.6688325709825633 0  -1.895094224704484 0.4829362715277074 0  -1.933874026395918 0.291100039811769 0  0.001113001262313715 0.00695342832569016 0  0.1776449267423899 1.412284460205722 0  -0.3934257514468911 1.370986370602499 0  0.6935949826689756 1.246761319507226 0  -0.9098314109891773 1.104228718550486 0  1.153516995843368 0.8562493036282385 0  -1.280903028849692 0.6666896181391131 0  1.389327299182276 0.3988055543300544 0  -1.449661872262982 0.1131168376458702 0  1.455403515434977 -0.1042440067214345 0  -1.390804657000536 -0.4584841764407823 0  1.31160833832473 -0.6597385467075867 0  -0.4881179389051378 -0.06097644831838932 0  0.4885858722009965 -0.06670124374414378 0  -1.165921305645589 -0.8974818482026243 0  -0.2601745031145801 0.3796646522929625 0  -0.2046658041182648 -0.4180431812001405 0  0.2827076185109159 0.3650915591650848 0  0.9508675431421062 -1.134330571046439 0  -0.7924518300162778 -1.256695080340178 0  0.4635394552823222 -1.411952388134711 0  -0.3021594243765078 -1.450139054979377 0  0.2328357114487032 -0.4249406382002281 0  0.07852296205349499 -1.404979525568251 0  -0.1228769611027329 1.610513246903057 0  -0.7457968429008478 1.4313043183709 0  -1.250119526941634 1.028928951413506 0  1.084429568365223 1.208147990570977 0  -1.553306750858657 0.4597653628495189 0  0.5266145055453435 1.548037934637659 0  -1.611115873053861 -0.1792185012212135 0  1.276447510996111 -0.9934710507038007 0  1.568757650212254 -0.4188447270489053 0  0.01734818118969792 0.5814930294083096 0  -0.5785019046954971 0.2352915840509764 0  0.8010149429676331 -1.423165443843583 0  1.019168847918059 -0.8013190616593303 0  0.6311224782341992 -1.149980474156716 0  -0.5084449482159397 -0.3952975729284497 0  1.625558223244115 0.1886141615136615 0  0.5909377516299524 0.2190741431550246 0  1.503522350571968 0.7041254178829803 0  0.8240375907119912 0.9230671695529132 0  -0.5760840496208685 1.081371407552665 0  -0.09538564930170264 1.213540748692995 0  -1.155633712067976 -1.197008058199129 0  -0.6006271333896873 -1.548224375676811 0  -0.002901450422880807 -0.6430615119926567 0  1.234027304946148 -0.3629955064250241 0  -0.9722262884194276 0.7692425302540712 0  -1.265634846370101 -0.1752272129097222 0  0.562310565896749 -0.368049901672781 0  -1.45840781516047 -0.7547648371133815 0  0.3815627344068901 1.15179500773034 0  -1.217335045399542 0.3307089784883491 0  0.2075747091327318 -1.672279417110718 0  -0.1241128761658095 -1.677386387665082 0  1.115446265773815 0.5337969249030767 0  1.231779533102862 0.06974669816320264 0  0.904430582961033 1.422263786017758 0  0.2132860001961413 1.686649913067594 0  -0.4815114981882128 -1.215152046813818 0  -0.3927070820455884 1.643726692563125 0  -1.115238952815693 -0.6175046930842225 0  -0.8133849852412963 -0.984169546996229 0  -1.070179783287585 1.325873437731346 0  1.399873447706334 0.9532922110784546 0  0.01002208792222215 0.3371812777110679 0  -1.53408212176649 0.7269009412658987 0  1.632921063210925 0.486647897047492 0  -1.700606386843123 0.06577998739407012 0  -1.194092320630066 0.06044768914639486 0  -0.1232521006967969 -1.25011267661257 0  1.692737792578408 -0.1930231199275261 0  0.2816433097197406 0.6015111289442889 0  0.2329384768739365 -0.1494033421785039 0  0.2629283335874614 0.1092515971119022 0  -0.008017632253399715 -0.2464234436245926 0  -0.2357383967853353 -0.1206260750893419 0  -0.2322961378342849 0.133009146344136 0  -1.053795071614814 0.5213680110572747 0  -0.7149983331416864 0.007431678190144309 0  0.7246821604489269 -0.05454971358413618 0  -0.7409998850977891 0.8786406937097104 0  -1.643396545121509 -0.5191960225200434 0  -0.4900306373910891 0.4715748774208494 0  -0.2449094456198214 0.6171733148039309 0  1.067860866253094 -0.570787343087006 0  1.550593676117703 -0.7570232422359581 0  -0.3757477462398862 -0.5997964131359186 0  0.5791424702268602 0.9874672328009216 0  -0.3215710194615757 1.092422020408583 0  0.5105160000806435 0.4564714044424429 0  1.194039594009596 -1.223387437848703 0  -1.353955650536328 -1.056558073371858 0  -0.937901007609056 -0.7832062460590994 0  0.2613289351807512 -1.231610950273419 0  0.3917800239783831 -0.6064311154018041 0  0.8134751460542934 -0.9301885039594228 0  -0.6830303878584517 -0.2420710698993424 0  0.9575815737012786 0.7168843359138857 0  -0.9358728333846792 -1.459393252092275 0  -1.151875636582021 -0.3930869878937434 0  0.6354450227102811 -1.594428960054097 0  1.136201907789869 0.2869444737710795 0  0.1348195134376944 1.117126311504229 0  -0.357592995299384 -1.686260939262355 0  0.1987369616320719 -0.6569809951954411 0  1.170974811249188 -0.1569590052102964 0  1.009517938673556 -1.346040361061258 0  0.4197702794095576 -1.628559590959607 0  -0.6211672460459274 1.627490470562789 0  -1.726374867115497 0.3349486689596267 0  -1.459989873346635 0.9817797680396048 0  1.301398163615657 1.16065210579551 0  -0.6070550468568022 -1.053626645598139 0  1.3164
[...]
<PointData  Scalars="f_951-1"> 
<DataArray  type="Float64"  Name="f_951-1"  format="ascii">3.8910073952714519e-01  3.8203708822699484e-01  3.8870245292033490e-01  3.8569720230054111e-01  4.0423406729607281e-01  4.1573566767859210e-01  4.4337331488508142e-01  4.9624807924086162e-01  4.8657335153798109e-01  5.0618715769154976e-01  4.8739690676615732e-01  5.0179782213586954e-01  5.0822586647448420e-01  4.8910142607794643e-01  4.9788917793505022e-01  5.1539582008827478e-01  5.0757608058910697e-01  4.9603927903312367e-01  5.1725187419162821e-01  4.9222265746646848e-01  4.9042315281521215e-01  5.1243962538693921e-01  4.9097558876638137e-01  4.6804548951836145e-01  5.0180750611595526e-01  4.5819963393841329e-01  4.0319482641106447e-01  3.8548703460719885e-01  3.9750683813839405e-01  3.9508551464830166e-01  3.8814705835994234e-01  4.0268580399012321e-01  4.0509200327143674e-01  4.0051985426478404e-01  3.9756096500912158e-01  4.2192353893407031e-01  4.0162609386665055e-01  4.1961105344173161e-01  4.1720931689785590e-01  4.0748457315252390e-01  4.2637916321487279e-01  4.1941032137196155e-01  4.3724756979532137e-01  4.1718650699286763e-01  4.3296417894049677e-01  4.2826243374008727e-01  4.2727641907545472e-01  4.2695698051157233e-01  4.1360116556159660e-01  4.2393329378233846e-01  4.1896775955105547e-01  4.1207698038621343e-01  4.2773546785823857e-01  4.1327437749254242e-01  3.9584892116828119e-01  4.0501175589574523e-01  4.0377996355390550e-01  4.0036861890954933e-01  -1.3275079233263255e-02  -8.7066148517159665e-03  -2.8581591311816139e-02  -9.7232394107800796e-02  -9.2773025884658064e-02  -2.9234298946044672e-02  -1.4642072259642995e-02  -1.2765067644332800e-02  -3.4646643089361537e-03  4.3369272249320816e-03  3.1464231095231204e-03  -5.7579981496494265e-02  1.1915956035199030e-02  1.6978239131223309e-02  1.5921105693646100e-02  2.3512639257296495e-02  1.5836908869889321e-02  1.0920649155692163e-02  1.1697957278710886e-02  -3.2305860768043661e-04  8.3291144098960913e-03  1.4551177628011029e-02  1.1599079514752281e-02  1.4948380863499462e-02  -6.9400989594537747e-03  -6.5187883600384952e-02  -2.9560985156446319e-02  -9.3789523596320687e-02  -9.3955998865457094e-02  -9.1962987967132107e-02  -1.5779639640315830e-02  -1.8508361731262881e-02  -1.8374033847555805e-02  -3.0758206503411517e-02  -2.9728179870138144e-03  5.8945166209138622e-04  2.9921974024605912e-03  2.6200913076009592e-03  1.6247961571274235e-02  1.4330983900461981e-02  2.1724101258348654e-02  -5.0515593297805793e-03  2.2471752968793973e-02  3.5914439329914241e-02  4.2729412169808398e-02  3.4920209808072873e-02  3.6527773678526984e-02  3.3163668576994834e-02  -2.9242167849018265e-02  2.5306294089704286e-02  3.2479561760538810e-02  2.8502100376964132e-02  1.8818583160473801e-02  2.3389554942348966e-02  3.2572723205152851e-02  1.9213241702407423e-02  -4.6062513713273065e-02  1.1603811406322984e-02  9.2021566761146950e-03  1.2171234188349341e-02  3.2687037590519463e-03  -1.1427172315011532e-02  -1.3188333162986395e-02  9.2738068008785890e-01  8.6135656396601729e-02  8.3703972165387358e-02  7.9449456039476257e-02  7.3641830110320161e-02  6.4957439574937562e-02  5.7587140970273572e-02  4.6966051651267340e-02  3.7475570566915986e-02  3.1776052046573661e-02  2.8020652159168560e-02  3.1995429991706882e-02  9.1552686601430622e-01  9.1534080905494131e-01  4.4175627796753526e-02  8.9190910437938020e-01  9.8286915526671070e-01  8.9257156939754700e-01  5.7597130875147812e-02  6.2323983317393535e-02  6.6412675036051014e-02  6.4529439814703368e-02  9.8448395475017969e-01  6.9240566566622835e-02  8.4442629529697694e-02  7.8383136595623834e-02  6.5082239869420744e-02  7.0633185322223443e-02  4.6249896243791458e-02  8.1617999222765941e-02  2.9521305125207380e-02  4.1634917715599164e-02  2.7476164315719760e-02  8.7848993468297354e-01  8.8681774205703423e-01  6.0313750538989984e-02  4.7072384158785209e-02  7.6079060529838385e-02  9.6097768238053571e-01  3.7742023682383552e-02  8.8517540465361400e-01  5.2975587975146732e-02  6.7480778364801999e-02  7.9513125491783701e-02  8.4539391206079159e-02  4.9087337512841861e-02  6.1472567118159765e-02  1.0205645518706918e+00  2.3985156328765161e-02  7.0233049000393538e-02  2.9497942733297030e-02  9.3975104543070209e-01  3.1561177439876228e-02  8.7978204905971386e-02  4.9602448358775253e-02  6.2128159223127873e-02  6.2370967750510750e-02  6.3006498357619387e-02  4.0703444625381585e-02  7.4312572623911013e-02  8.2154273972046055e-02  6.6852691816736698e-02  8.0902759521335521e-02  3.0164156720176239e-02  7.3581721688137716e-02  7.0111799777830469e-02  5.9196077884715564e-02  8.9823963873823931e-01  5.1384806310814546e-02  4.4151491514891623e-02  3.1886190051348080e-02  4.0789266506623442e-02  8.1909059617636060e-02  2.6827460302673842e-02  8.5731941831428016e-01  9.4174681037818264e-01  9.1265725978861501e-01  9.5918063320965208e-01  9.3810267114132562e-01  9.1164274938488921e-01  6.6950210653649200e-02  8.6677495680811256e-01  8.6793438005696399e-01  7.9993171404152949e-02  2.4532771059154152e-02  8.5430406433941453e-01  8.4622433455632262e-01  3.8267737818819494e-02  2.7660231418965196e-02  1.0060024928454396e+00  9.1633796468693962e-02  1.0201158023265998e-01  8.4803026452998620e-01  4.6376890142289413e-02  3.8903286157411537e-02  5.6911263572868791e-02  8.2774664766769562e-02  9.9946400963089188e-01  7.4687691616098728e-02  8.8217231938589902e-01  7.3669673675579694e-02  5.4942047376317020e-02  3.2255751766659749e-02  5.9408466492339780e-02  5.0444529077264405e-02  9.3925297153719917e-02  6.0274276661520056e-02  1.0189242123551570e+00  4.3693312745400552e-02  5.3817125390292563e-02  6.1604125311999755e-02  7.7430409060519262e-02  3.6945044648524786e-02  5.6623649263999126e-02  6.2628990397098905e-02  8.6246739836915803e-02  5.5724797491639999e-02  7.5431778779108186e-02  8.3494060490136301e-02  1.0070556352633784e+00  4.0010334373986677e-02  8.5875691680932023e-02  2.9528492659044475e-02  7.0686547651273593e-02  6.7255896724050121e-02  6.7744067616947859e-02  9.3416256951153881e-02  7.5541755560761065e-02  9.5542182722541902e-01  9.8777699383434203e-01  7.8503309083415296e-02  5.8096815005815476e-02  5.8298222258549297e-02  7.0330690930024531e-02  9.5677448330279158e-01  7.3143891971349920e-02  7.7378744512925382e-02  7.7898326889080799e-02  6.4325041903841432e-02  6.4550096057431103e-02  7.1625299476314006e-02  8.4903229758272608e-02  8.9972076059681039e-01  8.9879590743976934e-01  6.5554874270109628e-02  8.2583693209699249e-01  8.1228658553904431e-02  6.8861472662587270e-02  8.1667869749488517e-02  2.0550879047550492e-02  2.3180761946832711e-02  3.1074989570954167e-02  1.7929927861022554e-02  5.1999508774562934e-02  6.4964446654628541e-02  7.5667710493596371e-02  7.2404327543139441e-02  8.9742442985419268e-01  5.4382489816673409e-02  4.7987278652829451e-02  8.0249734083606117e-01  7.9638761719657267e-02  8.5493823686459205e-02  9.1110928980353156e-01  8.6299998741272768e-02  8.0997067918048005e-01  3.4282457167099066e-02  4.4354837521872470e-02  5.0244290549031949e-02  8.2937469828002996e-01  8.1375014690750991e-01  7.0324856742083358e-02  5.8456968773581051e-02  4.0435541018651572e-02  5.9167997876521106e-02  6.5801480932184478e-02  2.9085307580058083e-02  3.8039895863727587e-02  3.9102937987925315e-02  2.9439486627347043e-02  6.3478675874301199e-02  5.2990950660466656e-02  2.8115183929755157e-02  2.4007446637521846e-02  2.8348378172068995e-02  3.3469681013859859e-02  1.4833620499390082e-01  3.4483272160495612e-02  9.7078834066756503e-01  8.7953573805693530e-01  1.3090509736657385e-01  2.5154917891830046e-02  7.9929507177106318e-01  1.3530192033349728e-01  2.0912473967100449e-02  1.5231931868165713e-01  6.6784588743984130e-02  1.2871956383116032e-01  1.4097945486857560e-01  1.1790437128558752e-01  8.6972376035485743e-02  4.0404665425831730e-02  5.2813759630879191e-02  8.8995919249056987e-01  8.8785003931068318e-01  7.5671772836408663e-02  3.7571380855166807e-02  1.1981640887147878e-01  7.5006422078616963e-02  8.0577317246528585e-02  6.0925455450593038e-02  6.3941518633115674e-02  9.2767223377423513e-01  2.6587295713743415e-02  7.6714062334987912e-02  8.7039915133800091e-02  8.9758713543833479e-01  9.8696316626581504e-01  5.2579486370651650e-02  6.7182199949782861e-02  7.6215465159092180e-02  8.0666172749216769e-01  5.6608816747233809e-02  5.6274704028843721e-02  3.2389018901032553e-02  8.9514484821376161e-01  9.7152313177695337e-01  3.0556658731308410e-02  3.4459422454392305e-02  4.3221854746253306e-02  8.5440285080140121e-02  8.2238464720181745e-02  1.3400559484415586e-01  2.7161465928150198e-02  4.5154238582384064e-02  6.2396225622101426e-02  3.4376470209168168e-02  7.9219343034043821e-01  6.4638281537494832e-02  1.2801833451863692e-01  1.3611010197464635e-01  7.5960336758384539e-02  7.2082649642559726e-02  3.1036907865298568e-02  9.7121098591020791e-02  8.4516178503541053e-02  9.0746442850020659e-01  2.9359274659365203e-02  7.8927136871860804e-01  2.9275182142688577e-02  5.1625958892079382e-02  1.0033776978443238e+00  1.0419106862949094e-01  2.9531725524443216e-02  5.6725124060153488e-02  1.5934782287669211e-01  5.5820832817215858e-02  4.4703767849307602e-02  4.2195445546605932e-02  4.9040922285767979e-02  2.4201758042723617e-02  5.5310424042844135e-02  1.0050035520368266e+00  5.0261804832565989e-02  5.9056899067768863e-02  4.6468285313684250e-02  5.1063891913457178e-02  9.1003767234512989e-01  3.6705471668543231e-02  6.0974888622669275e-02  5.6663706686715512e-02  7.8139508290651283e-01  5.4939525526177917e-02  6.4032958143118754e-02  9.6873167472132926e-01  5.0167445611729408e-02  4.6960850874824898e-02  3.9694901290210721e-02  1.2528218701674060e-01  5.0277114561114958e-02  2.3700600105979321e-02  9.7473588010919121e-01  6.5509708104720052e-02  9.7910127002443870e-01  9.5911446705108139e-01  3.5783479889025908e-02  1.4503023588434261e-01  8.5349943843121601e-01  3.3669297355409099e-02  1.5383761076511532e-01  9.8302326940100293e-01  3.2732149552945483e-02  3.2531521084774633e-02  9.0876850297929568e-01  9.2404047796272060e-01  9.2609343269488831e-01  8.4809109717544628e-02  5.1399512839669842e-02  5.2516447885955685e-02  1.4669277505421721e-01  9.0065232158043995e-01  1.4490270391048546e-01  9.0963861489712616e-01  5.3627027907863119e-02  1.0749097718103585e-01  1.0349936446781632e-01  1.4322213305753023e-01  7.2283335863442086e-02  9.3190139381527048e-01  6.4212235565404813e-02  7.3052406571338643e-02  5.8010275744593665e-02  5.6086275568845358e-02  6.5744480826825949e-02  8.2525712364028253e-02  6.7386052066982782e-02  9.3378582576187064e-01  5.5656854512958015e-02  1.4689149953353919e-01  8.0913406335805863e-02  1.5184056020540088e-01  6.3339067845488331e-02  8.8679165001591231e-01  8.8543643520261062e-01  4.1958522335954027e-02  2.9234534848501342e-02  1.0012152671434791e+00  6.3975435402771147e-02  9.6157437234984766e-01  9.4201460932967118e-01  7.5339022192775840e-01  8.2579412983882022e-02  6.5292498378679759e-02  2.8391022362942209e-02  8.5346519322363215e-02  7.5737400038018696e-02  7.2942762946644632e-02  7.7794169515207776e-02  8.7920648912064092e-01  2.2546149343634917e-02  7.6015672872389653e-02  6.6955679815157709e-02  9.6274998396084144e-01  7.2241240509005888e-01  9.2218532900526851e-01  9.2868633332365635e-01  9.4454859728997265e-01  1.5819765355689219e-01  6.6026896554107428e-02  9.0121747543648967e-01  4.6135204032916627e-02  5.7586133928763106e-02  3.5372848297219629e-02  8.6200185385153907e-02  6.7061918070080509e-02  5.5893266546197931e-02  6.2889491500278449e-02  1.1434797129374398e-01  2.1793430473292904e-02  9.5023243901308355e-02  8.9736918936010801e-01  9.3548233906189915e-01  7.1752326795309507e-01  7.4364941213905622e-01  7.2030468658829994e-01  9.2159494745072845e-02  1.2326953929917386e-01  4.4672905257644314e-02  8.7257150626148483e-01  1.0349379217560331e-02  7.1383665513077554e-01  3.8262917608046725e-02  6.6674120434337986e-02  6.8101488813489666e-02  1.6863056282012603e-01  6.6185593117906491e-02  6.8649965986567196e-02  8.5431203563960445e-01  2.1145862639598098e-02  9.0690995529591506e-02  3.6727295856951468e-02  2.6446363994279187e-02  2.9323385813811657e-02  3.9068908073008272e-02  8.7194458396278873e-01  4.8151279276467118e-02  8.3027085650410476e-02  3.0959022987412238e-02  8.7626105780565100e-01  7.1380820885781893e-01  2.1588254649782899e-02  8.7234355050295365e-01  3.3988830478642235e-02  7.8965493090296768e-02  8.0719174498946111e-02  8.3144710283455533e-02  1.1751850461683995e-01  1.5060964815316225e-01  8.9651101212874185e-01  9.1682094638531442e-01  9.7220177120674223e-01  7.7497598990463462e-02  1.9741135307232920e-02  1.8663373582680869e-02  2.8251427957411430e-02  1.7712088849965674e-01  1.6440763928066263e-01  5.2763399494064167e-02  6.2759433229409425e-02  9.1804378807914466e-01  8.8135694952493249e-01  2.3658378533850073e-02  2.1582458188480196e-02  3.1420976739698139e-02  5.2639654247800968e-02  2.3782566989266431e-02  2.9287470903039192e-02  7.2927400818316696e-02  8.7438068577829398e-01  1.2603124130229751e-01  7.2233331619884544e-01  9.0356430656774500e-01  8.2012371720087329e-01  1.5959858073939570e-01  6.8249430641986658e-02  5.4337853732835437e-02  6.7306949436954333e-01  8.7768694907626718e-02  6.8289083645868859e-02  5.8751271854125264e-02  9.0261858478335144e-01  2.7185890136293786e-02  3.0565363884892893e-02  8.3655371578160775e-02  4.6229889682598523e-02  5.1195996419861903e-02  7.4807157127425666e-02  6.2606916768367091e-02  2.6384584840197650e-03  5.5456020013555561e-02  6.3728847601020946e-02  5.5514337263359713e-02  3.1243962814030583e-02  7.5822556383735390e-02  7.3929081378953654e-02  1.5834810100654345e-01  6.3138341876340917e-02  1.4464203215865842e-01  8.0200702052972098e-02  6.5090494927886225e-02  1.3572692317292079e-01  5.8013582512639793e-02  7.5348562260283553e-02  6.9289730701366931e-02  9.9303401653480972e-01  8.6774565964079475e-01  8.8365500975553257e-01  2.3607611524486004e-02  3.3091121342871191e-02  1.3450314634390870e-03  9.4846903613984915e-02  3.7386863804618344e-02  7.2816212462818469e-02  3.1901830037684618e-02  8.7866108753970551e-01  6.3434681616514541e-02  7.8881369148825486e-02  4.6845810754817578e-02  5.6878554332402922e-02  5.5706552167273916e-02  9.9393077367005533e-01  3.2040094408226423e-02  1.7093654872624919e-01  7.8060826413888881e-02  8.9767584276935786e-01  6.2350952748030833e-02  1.4256678799763451e-03  9.6059696926574212e-01  2.7638748092429090e-02  6.9696986533930319e-02  8.0742609876145940e-02  9.6481359439914094e-02  9.5708866024277606e-01  8.8575832882573169e-01  1.6083446610181801e-01  7.1875346138568344e-02  4.4227811507171387e-02  4.8374129154542906e-03  7.7169240201486439e-02  5.9082377774627680e-02  4.1360673103572880e-02  2.7133075110661604e-02  6.9175351306768040e-01  3.3693654796555290e-02  6.2437122877267888e-02  3.6210385206142025e-02  1.0132710409744992e+00  2.9915579674746201e-02  5.7227193713122140e-02  6.7415682481685946e-02  1.5670184800809389e-01  6.0649957833220344e-02  4.5334713134292458e-02  8.3077144128846994e-02  1.0119960576414491e+00  1.0138023031970684e+00  1.0029772511141868e+00  4.2060356926609463e-02  6.6304604220460772e-01  6.1657649277180274e-02  7.2927946247066069e-02  4.7275461653071275e-02  4.8036043656052213e-02  7.6363488073292252e-01  7.9561023655659258e-02  7.4975923233767139e-01  6.6350266124666435e-01  6.0572595702524809e-02  5.7061339849197298e-02  5.0681574530705022e-02  8.8887769966167218e-01  4.2012326970354251e-02  3.3832031150847881e-02  3.0168002633371577e-02  7.3994139993886043e-02  6.8972960278251658e-02  9.0036070419246417e-01  5.5984813271567381e-02  4.9222971431184738e-02  6.0937488128671481e-02  6.8115380818622673e-02  6.1799085529823335e-02  7.7790082756928197e-02  7.7420138752484796e-02  1.8157864222911929e-01  6.4295115543963138e-02  6.0744669598033561e-02  6.5529639222297431e-02  7.6286972673493533e-02  6.5301885975845450e-02  3.1252194925564740e-02  5.0121742638993966e-02  2.3780102734967664e-02  6.9992707557714459e-02  7.8957228581533823e-01  8.3349927404059898e-01  4.9239320100161930e-02  2.9278931107325035e-02  4.8433842610888629e-02  2.9522279252940046e-02  8.5116306932565444e-02  7.6485622779244797e-02  3.8450005613692585e-02  6.8750658382806140e-02  3.3808817286822765e-02  3.0388102921399707e-02  5.3336507612879447e-02  7.2366612548898271e-02  1.5411647674530873e-01  4.7583649442443129e-02  8.1659473969636201e-02  8.4655225416662247e-02  8.2596935204706207e-02  2.5829282849948804e-02  2.6354388285329398e-02  1.8865622232050624e-01  6.5944224299935394e-01  4.1429827076967227e-02  7.9338584474331772e-02  5.1970497358869078e-02  9.2231839911482183e-01  8.2710760446800335e-01  6.3325443848544227e-01  2.5494403736371185e-02  7.8565663697718738e-02  7.3530420216259482e-02  5.4641413338088099e-02  5.1517495022345677e-02  5.7404439000583216e-02  8.8150830716055228e-01  4.3478984277039404e-02  5.5602289797882849e-02  4.3525961544457349e-02  4.1223884783779599e-02  8.4901226337086827e-02  8.4950514763375520e-02  8.5498914203292975e-02  4.1259094308001419e-02  5.4505295638130544e-02  6.6642526671767663e-02  9.4738979378139154e-01  6.7255206822675828e-01  8.4112370551376392e-01  3.9111763514859864e-02  4.3794347851846299e-02  4.0134250790877464e-02  7.8098610199535248e-02  7.8954199453927038e-02  7.6430582558483701e-02  6.9108420301316642e-02  8.8344170297800939e-01  6.9399351038044663e-02  6.2377588341947898e-02  8.9189852644181200e-01  6.8525080425139717e-02  4.4457288966131631e-02  7.0076859038429279e-02  6.7728256520602367e-02  7.0569870132034140e-02  4.6591968261229640e-02  7.2146570541318289e-02  4.1249633152021958e-02  3.0098981139622970e-02  3.0870407741383495e-02  8.6374942592345585e-02  6.9227349901085242e-02  6.4248772436513987e-02  6.7151911319185034e-02  5.0893684342426547e-02  6.0637771501165179e-02  5.2585460116785325e-02  6.7567032115526685e-02  6.6553011121236863e-02  1.8390040503077543e-01  1.9849060991222939e-02  6.1875231125447794e-03  1.6640959699776933e-01  8.3508155519349744e-02  6.3802612390573277e-02  3.5202730251323665e-02  5.3684448701762706e-02  1.6277577072565306e-02  2.5440665296245137e-02  7.6635679615620844e-02  8.7737964574724348e-01  4.6669581161403816e-02  6.7563183950456920e-02  9.0769020439371273e-01  9.1646072314356686e-01  3.6190708457925158e-02  6.4721606046620056e-02  1.6540254648412323e-01  2.9049715075174971e-02  1.7988526705515515e-02  5.1502176476830745e-02  9.4901573035273878e-01  9.6831621127147738e-01  9.4994976899324679e-01  6.1112618511598812e-02  5.4383765694216032e-02  6.6192549166112821e-02  6.8092996611603188e-02  6.8113012822581975e-02  1.3111141122656525e-01  1.8277892072064680e-01  -4.6777580407443564e-03  1.1218026694078140e-01  9.4031672316525594e-02  6.1227066761915978e-02  -8.0707728677536020e-03  9.4176472671711020e-01  3.1412383752480330e-02  6.5636419588602168e-02  6.5974951384982952e-02  3.4959945457524497e-02  1.9292891718232016e-01  6.2677350397249171e-02  7.1962938762709913e-02  8.4527251731873962e-02  5.8823174258872062e-02  5.9830667696331968e-02  9.5161669722942308e-02  7.5464788248153858e-01  8.2336839894025043e-02  8.5604801715601553e-01  4.5064245063059845e-02  4.0462056066915567e-02  6.0816746248501176e-02  5.0339016232590260e-02  5.3660008177763022e-02  6.9177305909454562e-02  7.8750373830529907e-02  6.2559058745245727e-02  7.5756815389315890e-02  6.4230381967617781e-02  2.8097088232046978e-02  2.6395813357750493e-02  2.0917225884968301e-02  1.3590589108896420e-02  6.5809096592830130e-01  1.9885475554186069e-01  2.3545838889736163e-02  9.4869384361209530e-01  9.7239611827371042e-01  9.6605065267335688e-01  6.6341484325519207e-01  4.0618335216481810e-02  6.4774679919681821e-01  9.1656419755329191e-02  2.0722689401892536e-01  </DataArray> 
</PointData> 
</Piece>
</UnstructuredGrid>
</VTKFile>