<?xml version="1.0"?>
<VTKFile type="UnstructuredGrid"  version="0.1"  >
<UnstructuredGrid>
<Piece  NumberOfPoints="1173" NumberOfCells="2198">
<Points>
<DataArray  type="Float64"  NumberOfComponents="3"  format="ascii">-1.012275862241438 0.1595055896758932 0  -1.007356741195173 0.04916586968133689 0  -0.98979574029448 -0.05990288189548405 0  -0.9599698375437647 -0.1663366971229516 0  -0.9180761298015253 -0.2689123747938307 0  -0.8646956507882134 -0.3661539303843003 0  -0.8007203749425745 -0.456445825033646 0  -0.7276201984271002 -0.5385988535582845 0  -0.6479489020925677 -0.6106108386425302 0  -0.5631065885067549 -0.672315073347137 0  -0.4738020174330047 -0.7240455950387465 0  -0.3803690395153813 -0.7664930972770723 0  -0.2834859747573053 -0.7991491599438633 0  -0.1844444967186691 -0.8220850492051424 0  -0.08432129395835633 -0.8350229052670607 0  0.01612342141119237 -0.8381806870007721 0  0.1168990555548657 -0.831468696191497 0  0.2166480842329773 -0.8150423774412161 0  0.314835282677894 -0.7887115603729636 0  0.410212053532942 -0.752583526718564 0  0.5025141081490061 -0.7066892350306072 0  0.5899341695207092 -0.6517080778959891 0  0.6727104311269976 -0.5870438065447008 0  0.7500725822712695 -0.5119688471220698 0  0.8204203416341089 -0.4269174751066418 0  0.8809238273012728 -0.3340577173373894 0  0.9305570887232024 -0.2352131712596537 0  0.9683803954456086 -0.1318282191511367 0  0.9946158595243956 -0.02421530079879249 0  1.008274159571684 0.08584505578288265 0  1.009209839881526 0.196232415699933 0  0.9976402976503314 0.3052665443766366 0  0.9737328824827812 0.4127246003886036 0  0.9376622343430655 0.5170521038730252 0  0.890420473493347 0.6160620790041258 0  0.832050876064284 0.7092048250533559 0  0.7638087532764155 0.7954600601703093 0  0.6861671996596109 0.8739863431473808 0  0.6009536865736189 0.9431383450347517 0  0.5087827605097012 1.002654349864958 0  0.4099151224935363 1.052070125503656 0  0.3069746662238365 1.090365007052077 0  0.2005150216411833 1.117698829164635 0  0.09130170706231135 1.133496048967818 0  -0.01920416817578275 1.1375314294237 0  -0.1289074828767237 1.129519410520703 0  -0.2374516956224058 1.109890162153427 0  -0.3431126680335833 1.078781456253524 0  -0.4445419556191732 1.036688868431812 0  -0.5411200355889622 0.9838123806570915 0  -0.6317868217144068 0.920580758586204 0  -0.7142999182758475 0.8484417124914427 0  -0.788780420043104 0.7674905611507924 0  -0.8538233982213813 0.6788589368819901 0  -0.908602525420569 0.5834561564175064 0  -0.9523378091333876 0.4826160811018531 0  -0.9845136682761814 0.3773474052419075 0  -1.004606076842395 0.2691657217296137 0  -2.357486863783965 0.1015183002532464 0  -2.357492660152773 -0.1015213258760174 0  -2.340038760627154 -0.3038046700126558 0  -2.305255286651658 -0.5038392188465369 0  -2.253414200487359 -0.7001440622311436 0  -2.184878466272631 -0.8912662807701053 0  -2.100177356544561 -1.07579483248111 0  -1.999924146972346 -1.252350917403856 0  -1.884861358546096 -1.419639463985243 0  -1.755848392409984 -1.576415981834433 0  -1.613829537867522 -1.721521114752272 0  -1.459866819754866 -1.853881207241034 0  -1.295093783059407 -1.972516835491527 0  -1.120734018117074 -2.07654588516926 0  -0.9380755974180432 -2.165202497111373 0  -0.7484683711797046 -2.237830098785551 0  -0.5533238135506372 -2.293888324120635 0  -0.354082648284398 -2.332958162009215 0  -0.1522213970519961 -2.354765042789535 0  0.05077046074905645 -2.359128618965702 0  0.2533856052237746 -2.34603166130593 0  0.4541239655473334 -2.315570021847706 0  0.6514986898662163 -2.267954693507708 0  0.8440538565381366 -2.203556762634809 0  1.030356617998303 -2.1228407415047 0  1.209033082022197 -2.026407317780848 0  1.378755672757425 -1.914972084768281 0  1.538273362500016 -1.789357264900286 0  1.68639820174257 -1.650498196226392 0  1.822037770434057 -1.499411567606719 0  1.944190567981916 -1.33722983164001 0  2.051946969556932 -1.165148122429184 0  2.144517764289799 -0.9844423959141253 0  2.221204757865507 -0.7964466233024668 0  2.281444270720692 -0.6025498971149649 0  2.324802032197121 -0.404196143457515 0  2.350942044032285 -0.2028526454793111 0  2.359677452330817 1.400055052990945e-07 0  2.350937742874417 0.2028479327721588 0  2.32480150432636 0.4041963050672723 0  2.28144941038575 0.6025499610976256 0  2.221206450794736 0.7964441551639603 0  2.144518431259426 0.9844393608824928 0  2.051953344139173 1.165150221030251 0  1.944189990836332 1.337231154727324 0  1.822042426427032 1.499414958596018 0  1.686401356291955 1.650498625137977 0  1.538272059737078 1.789359081471807 0  1.378759100487267 1.914970579302805 0  1.209030494348552 2.026403082710538 0  1.030354817244807 2.122842950684797 0  0.8440557278634325 2.203556536483345 0  0.6514994680878976 2.267955265622603 0  0.4541264581600666 2.31557019557215 0  0.2533860997305303 2.346036491638607 0  0.05076917130559355 2.359136192255801 0  -0.1522222504065341 2.354765009877216 0  -0.3540821052507333 2.332958943360728 0  -0.5533232033773797 2.2938889128713 0  -0.7484686286247358 2.237825310662526 0  -0.9380722647112885 2.165199543332539 0  -1.120731182105142 2.076543197310108 0  -1.295093296029536 1.97251746550854 0  -1.459866252507356 1.853882247770519 0  -1.613827436504383 1.721517602666799 0  -1.75584253507407 1.576412497227814 0  -1.884858846762564 1.419636611385476 0  -1.999923436936294 1.252353031849588 0  -2.100179082131976 1.075793861612116 0  -2.184880748732259 0.8912658530854111 0  -2.253408870795179 0.7001439650959622 0  -2.305256248248239 0.5038377484632753 0  -2.340033825295423 0.3038034976786895 0  -0.0005265008821488123 0.1609967214173328 0  0.1033361238866512 -1.601923329349016 0  -0.7040291719462303 -1.453180561269183 0  0.8150854761616145 -1.392521326143495 0  -1.349705767740276 -0.931586509581353 0  1.390164592244136 -0.8738551358572324 0  -1.645029559442626 -0.2923783507759243 0  1.657849522079434 -0.2216723649776672 0  -1.64909250685608 0.4269722876317965 0  1.630797193247296 0.498004797730729 0  1.292051911649166 1.149793388832975 0  -1.339469397631968 1.092504132302381 0  -0.7881202714745784 1.553214770638474 0  0.7340262468210038 1.579592304891791 0  0.1138235190276207 1.747788896462787 0  -0.5065097799020134 0.08450044543954482 0  0.5098899713520583 0.1541310294287073 0  -0.3039043555732893 0.5517045125378891 0  0.244917345996646 -0.2705746827544577 0  0.252400538501789 0.5833605240265366 0  -0.3558063191724198 -1.823956103190531 0  -1.209677040470744 -1.414673956880728 0  -0.3762595377037917 1.833126636056631 0  1.302514305341141 -1.350841161001937 0  0.6046538120943067 -1.806426176102462 0  -0.2417971251454519 -0.3017842587039495 0  -0.8860044444876102 -1.025494187523135 0  -1.763918735589439 -0.8110328882495806 0  1.789471020149632 -0.6529034524740638 0  -0.2009162436383296 -1.275338991784903 0  0.9389325633788895 -0.9593433351909609 0  0.3953779993966955 -1.232387912574107 0  -1.952787569621051 -0.004627780017055174 0  1.907216607879032 0.151624714153029 0  -1.787457287783856 0.8139850115298043 0  1.67566321378525 0.938420388275121 0  1.294561407612133 -0.4603479875475279 0  -1.269441860568349 -0.4994312796145047 0  -1.213353423418444 1.504894706598315 0  1.156969202230631 1.554819834475866 0  -0.0005571658157484858 -1.977050848975393 0  -0.4189621421778528 1.451503461298593 0  0.466117985303705 1.923905094719565 0  -0.7402119729106756 -1.837475618577861 0  1.086628935179477 -1.665551494613969 0  1.427780414859313 0.1251482200988976 0  -0.5299336906324796 -1.122871904916102 0  -1.409208245433466 0.09635191748725375 0  1.291754643426319 0.7321885633573209 0  -1.419893699309558 0.7228777337723379 0  -1.548833700716768 -1.253385970806978 0  1.619758844813153 -1.165230820158194 0  -0.9638651103844549 1.200464617802919 0  0.8976430365711745 1.211836519528595 0  -1.943817825311557 -0.4991801347140039 0  1.979604960270132 -0.3619884497612896 0  0.3704255875813726 1.463986980088611 0  -0.7284782342191261 1.894819498920155 0  -1.678743338758666 1.139986408927632 0  -0.09080994937245762 2.021530510753952 0  -1.991296938933012 0.344565194091865 0  -1.015728668866889 -0.7214913546078896 0  -0.03858521853614293 0.78836937240598 0  1.903837017381878 0.6972348001629257 0  0.5735600742565966 -0.1871674530978647 0  -0.6197615516644633 0.4054951732943251 0  0.5808475083137506 0.4905267473334126 0  -1.125343972588574 0.8489164775287622 0  1.530978531993421 1.368375621944625 0  0.7817621314546529 1.894255700925743 0  -0.9732477436494819 -1.623861462902846 0  0.333743448451377 -2.004211710682997 0  -1.311336682948381 0.4084288537945169 0  0.0463469534068507 1.441386900745655 0  1.297318389811811 0.4124012426929788 0  -1.026900236219151 1.769500328323529 0  1.05103851059213 0.9346410197657677 0  1.040337976238854 -0.660774165961853 0  -1.274735594591131 -0.1899781367919673 0  0.6759019912577821 -1.115374622128907 0  -0.5877583769068581 -0.2241450365885425 0  0.01419314120641589 -0.4995892605414924 0  0.08914275078430153 -1.154907431122035 0  0.4142830034569971 -1.550125432305787 0  1.281219349947351 -0.1533604154643396 0  -0.6632230722987759 1.263404371892693 0  -1.47740479591893 1.362706061460067 0  0.6076907468379257 1.281688957199573 0  1.835855241958744 -0.9523011228695953 0  -1.566610111310015 -0.5807494784132305 0  -0.1565881086301564 1.646521684452156 0  -0.1908293822863251 -1.574310020505334 0  0.1963135505228532 2.022662163260044 0  -0.0192319471808609 0.4553784854877173 0  -1.668287614632289 -0.01483438599997213 0  1.89353742958255 0.4236169068468324 0  -1.24137023994378 -1.68901733081295 0  0.8398056746823706 -1.936463272721608 0  -0.4487024669244589 -1.372893847760803 0  1.200329218973983 -1.083502451790895 0  -0.008508053910719382 -0.1286879334133573 0  -0.2395963625313638 0.01978602325695557 0  -0.2411738705158851 0.290091947133935 0  2.085192237297361 -0.09257648942072658 0  1.573997535569988 -0.480225924319905 0  -0.76026371522289 0.1188733949241357 0  0.7395132364230902 0.2748572264829197 0  0.2228592079133955 0.8431323619
[...]
<PointData  Scalars="f_3123-1"> 
<DataArray  type="Float64"  Name="f_3123-1"  format="ascii">3.4479536517850362e-01  3.3442720808973053e-01  3.3155747797642632e-01  3.2796517938942554e-01  3.2815654343309303e-01  3.3778978337832150e-01  3.3367283111843721e-01  3.4458247682280468e-01  4.1085754336750502e-01  4.3085431069935248e-01  4.3592319909222277e-01  4.1636280998587261e-01  4.2036813736540796e-01  4.2945430962756626e-01  4.2028444612789867e-01  4.2656681646446493e-01  4.0650950080384235e-01  4.2213843446239441e-01  4.4324021650925410e-01  4.3559048535899370e-01  4.3214231395193137e-01  4.2832978634037183e-01  4.0435874243344322e-01  3.3322707703659910e-01  3.4564085795539551e-01  3.1354083487278017e-01  3.3407550280364334e-01  3.2583791470652290e-01  3.4643888000622197e-01  3.3365178568077647e-01  3.3034449774956781e-01  3.3455644788212646e-01  3.5711635532783381e-01  3.3243521518227714e-01  3.5250264538204235e-01  3.4678962861366097e-01  3.5525855493836989e-01  3.5940551533374188e-01  3.5945877355162242e-01  3.6498145216171485e-01  3.6140559001331152e-01  3.6131029795594749e-01  3.7836401049973356e-01  3.5365061997401825e-01  3.8012583530689592e-01  3.6462802949188616e-01  3.6825976798923876e-01  3.6731972712380229e-01  3.6995506680344409e-01  3.6296284037131393e-01  3.5939144279099428e-01  3.5312310509304018e-01  3.6378908523625275e-01  3.3662519088003973e-01  3.5369164247334556e-01  3.5461542708051641e-01  3.4270966498903715e-01  3.4015682214852078e-01  -1.0556266092964275e-01  -4.9536980406064711e-02  -4.3143299096084400e-02  -9.6012391179769938e-02  -4.2100440652044428e-02  -1.0715038676592999e-01  -4.5578473158550785e-02  -4.0901407877811775e-02  -4.3289147508929225e-02  -1.4414629599640403e-02  -3.1426068234597142e-02  -1.9285010379539277e-02  -6.8227829508430539e-03  -1.9499970739268055e-02  -1.5674845658784776e-02  -1.3435696369964731e-02  -4.2714148176307559e-03  -6.0972843100534961e-02  -9.2833709107253103e-03  -6.5979444208630764e-02  -5.9906198473911182e-02  1.9183934218804084e-03  -5.9684434096433814e-02  -1.4031630054876029e-02  -1.8893892317549968e-02  -1.5181125184197845e-02  -2.0033426243634606e-02  -3.0813460532445661e-02  -3.2876330794333809e-02  -8.9499458617701783e-02  -8.2134740601152945e-02  -9.1901946442312740e-02  -2.4709010663312835e-02  -4.6139346656970462e-02  -9.8180771044295040e-02  -3.9429765741551638e-02  -4.7166369723788709e-02  -3.8258418325597406e-02  -9.4684183935714011e-02  -4.6926112098897084e-02  -4.5483387697748699e-02  -3.3170626335558791e-02  -4.3761128270793211e-02  -2.2491106158837787e-02  -7.6862574136111375e-02  -2.2149954643147025e-02  -5.6072831774385060e-03  -2.3779702140618014e-02  -1.6725568921168381e-02  -6.7923395498144676e-02  -1.0757453015879131e-02  -8.2731923825996641e-03  -5.0412997532567318e-02  5.6616359766164161e-03  -1.8002933015231599e-03  1.7909098557954410e-02  -6.2111210643319530e-03  -5.0634388772091241e-02  2.8332975401475192e-04  -5.9612714272577992e-02  -5.8684839128158597e-02  -5.7054069100392867e-02  -3.9578523441772375e-03  -1.0027987744009908e-02  -7.4547458415028051e-02  -7.9552216356840205e-02  -7.9022284898871323e-02  -2.9868233102061839e-02  -3.0210720422911126e-02  -8.5399557600177131e-02  -9.7826150960924174e-02  -8.6309938093811003e-02  -9.4116342565533667e-02  7.9615166633462386e-01  5.9483072140668357e-02  5.3946052910199077e-02  5.2275704523177834e-02  3.3014185145144530e-02  3.2367151020992052e-02  2.4050874510574485e-02  2.4460858680495402e-02  3.2005574210152488e-02  3.2600730456698569e-02  4.8359581013007323e-02  4.7672285324733138e-02  6.1779516343757758e-02  6.1899188183084056e-02  6.7823982246314488e-02  7.8346953731044167e-01  7.8133393944893459e-01  7.7132369009046375e-01  8.3048474196675337e-01  7.7104113998580470e-01  5.7789583986712967e-02  4.3622086132201643e-02  6.6376678266994227e-02  4.1901123856417540e-02  5.5622990245914987e-02  8.3233555173558738e-01  4.3166237885245248e-02  2.5783018052516718e-02  2.5226888787341077e-02  5.4696297901941984e-02  4.1307645464940548e-02  5.4509690389992795e-02  2.4016604155792202e-02  2.5790234210067996e-02  3.5946213894838208e-02  3.8862089277743310e-02  1.9635391284752536e-02  1.8362954458082066e-02  5.4048338595800494e-02  5.4372575096900418e-02  5.7265078072172279e-02  6.5186886171318126e-02  6.4140298458969597e-02  5.2731223944657200e-02  4.7591190811508179e-02  2.3398639236452547e-02  5.4994025154908047e-02  2.3229539665573718e-02  3.8941734610870790e-02  3.9112036884603928e-02  3.3654541393412479e-02  3.2200368110055264e-02  5.4423658979747297e-02  5.3756117051137281e-02  2.1514848218459691e-02  2.0751933048044159e-02  6.3952917688614788e-02  6.1252697293642216e-02  4.1088990920196349e-02  6.5214249178144126e-02  2.6353481219538573e-02  2.7539454322187316e-02  7.6542280524157102e-01  3.1231723594402159e-02  7.9441550279183626e-01  7.6733795508136837e-01  7.6731031110856285e-01  4.9790185842428468e-02  4.3821862351969318e-02  5.9699902818462186e-02  4.9606006179969853e-02  5.5383071436065655e-02  2.5941720099195872e-02  6.6015068579618516e-02  3.0693076188929195e-02  5.6869030347632632e-02  4.7624218710440300e-02  2.8162843979644886e-02  1.1179964475545277e-02  5.0731281275432416e-02  7.8752097347717820e-01  8.4747584454513825e-01  5.1762023035630898e-02  5.8072846496007920e-02  1.9248441474899035e-02  6.7049637009290369e-02  4.7133133964295811e-02  6.6201838411360112e-02  2.4720782955116691e-02  2.5516930074227652e-02  6.8185860912424692e-02  5.9157922271983673e-02  6.4844433876704993e-02  7.7852138260251458e-01  2.5490171507081567e-02  2.8803972754539803e-02  4.0948964307768836e-02  4.8995739164688190e-02  5.6050354074819536e-02  3.9966817255930556e-02  8.1769992195829133e-01  8.0264708666606932e-01  7.8456164158047637e-01  2.0352167913643804e-02  2.4909944907321884e-02  7.4425689674235107e-01  7.5225731206920377e-01  7.5417634215860796e-01  7.4488776530801759e-01  7.5333436070709581e-01  3.1653696672603204e-02  8.3650168487476328e-01  5.2055742068501575e-02  7.8410418534907977e-01  8.0357423737594702e-01  5.6649725008814385e-02  5.4094437075089728e-02  7.4379598075452036e-01  3.5227563519743182e-02  4.8668685018835305e-02  3.8802303316533657e-02  5.8259733770811249e-02  5.3184933708279918e-02  2.5604630900540624e-02  6.2740452397728935e-02  6.7201793947527622e-02  3.8693894030697590e-02  1.8389912101624828e-02  4.6711563088534191e-02  7.5663395638050102e-01  6.4899331780459632e-02  1.8826004521282216e-02  3.3369851505481440e-02  8.5189645016105053e-01  2.1202395033453170e-02  4.2476338690184128e-02  4.5396992259373693e-02  3.8855976260225709e-02  2.7628225042053107e-02  4.6416730226003955e-02  6.9776549682463260e-02  3.0374059737980262e-02  5.6420073090319454e-02  2.8297036023817713e-02  6.9289825227420984e-02  5.1716938398516585e-02  8.3092842534527755e-01  3.6241489646149865e-02  5.0202990672207133e-02  4.8292872157019849e-02  6.6515700555197441e-02  8.5718740547374506e-01  2.5497060583613267e-02  5.0997553536184834e-02  8.5367363410669972e-02  1.9486423743675981e-02  5.8827381164717515e-02  2.4735573271579565e-02  4.7507978677775314e-02  2.9034485674186886e-02  3.4330522542704738e-02  6.5525305358810668e-02  4.6249495199903998e-02  2.3916560742906098e-02  5.2591718066656079e-02  5.7055423282648239e-02  3.1743627128817932e-02  5.5427308656057717e-02  2.6989149667695247e-02  2.0219043286658772e-02  5.9574632230086445e-02  5.0726651038499194e-02  3.5859724927988966e-02  4.2771863757708389e-02  2.6850453591285524e-02  4.3002453102721126e-02  7.5046492526217368e-02  5.4528403270732932e-02  5.9202491311154633e-02  6.3698278289959151e-02  4.4390940468879973e-02  3.3363954611324444e-02  3.2288424470958151e-02  2.1551246613034508e-02  2.0344488208232273e-02  5.8346894326661618e-02  5.1549110483571095e-02  2.3015137987710061e-02  4.5360128987796629e-02  8.0824554224933565e-01  5.3892044626557570e-02  3.7594448145506554e-02  2.2208768630188447e-02  3.7732933567686228e-02  2.1635215744551375e-02  2.3531884690034831e-02  5.6251512289940235e-02  5.1731387272115327e-02  5.8451141118553616e-02  1.7336228214843482e-02  2.4480495184671599e-02  3.6121037102074011e-02  3.4557703983431394e-02  4.8285816006771391e-02  6.6737073594179117e-02  7.2909649864792578e-02  6.6255489476730739e-02  5.1796245497913090e-02  3.6207312465750069e-02  5.0928582474112534e-02  2.8905187251992571e-02  5.4978900154468976e-02  5.2666307385729756e-02  2.8633416789883907e-02  4.0915198638394115e-02  3.9716121332784265e-02  1.5299809014801519e-02  5.8763531420495597e-02  8.4685276335438750e-02  4.7316463361774939e-02  2.1374549181064469e-02  2.8259514473165138e-02  7.7812763170862098e-01  3.4333244234436275e-02  5.8908504998029909e-02  3.3930685360283146e-02  6.0495735810626526e-02  5.0700568237556962e-02  5.5472258375230614e-02  6.0141417622155247e-02  7.7489781371841382e-01  9.1564491028930814e-02  8.1418070982391982e-02  4.0455630073978496e-02  7.7561227261717969e-01  5.3454775190600518e-02  6.0161637027449949e-02  2.8784593085305957e-02  7.3795654439049563e-01  7.9701756695364834e-01  6.6697322241740645e-02  6.4344579311234718e-02  7.6231156183553986e-02  4.5084072298992847e-02  2.3995551550302512e-02  2.4687625037910024e-02  6.4846687251906829e-02  6.6800312137851703e-02  2.2762573550288753e-02  6.7443439362829288e-02  1.2667111679628484e-01  2.1645593971521205e-02  4.3995006162768767e-02  4.3853652743548834e-02  1.3664181973700149e-02  7.2469485592573357e-01  2.7542662621398532e-02  5.7973293658227835e-02  1.0453962954799827e-01  8.3408786439999572e-01  2.5930913581647379e-02  5.0851917394073173e-02  5.8459308099482202e-02  1.3644293336970570e-02  7.1519341060713326e-01  7.2140167732865856e-01  6.1560689892608274e-02  3.2570862782274432e-02  6.0069361298122265e-02  7.5698530617954551e-01  1.5276012762274964e-02  7.1684782066280783e-01  2.6748666602134503e-02  3.8622016331149089e-02  5.5779271337488091e-02  4.7890899314079624e-02  7.2103419799742241e-01  7.1489606931375882e-01  2.6769727988221456e-02  5.9065623157274816e-02  3.8924340494140806e-02  3.8170507850431530e-02  6.4295127284224041e-02  7.6662358228991345e-01  7.6665975584725155e-01  2.7032441439146571e-02  5.3511228045339136e-02  2.8507727794757142e-02  4.8262362510669982e-02  2.9854909454318707e-02  6.6268211161983948e-02  7.7168298111198785e-01  2.4667374239527477e-02  3.4594020203171233e-02  6.9298370456310621e-01  4.4815659146936929e-02  2.4111084122756667e-02  1.8197026569796357e-02  1.3245465737387373e-02  7.6854365091901289e-01  8.1483228120286333e-01  3.3172786828341939e-02  4.4872069967926080e-02  5.1558161607439541e-02  6.2514446392874623e-02  2.4347006692482139e-02  8.9600525425151747e-02  5.3935704034815374e-02  3.9178358247451320e-02  3.3589994822374791e-02  4.5167225559879669e-02  8.5682669511187193e-01  2.5666219174442173e-02  2.3655166920361272e-02  7.4251813084550367e-01  6.6984586281685896e-02  5.9226146235177378e-02  3.1239579935221404e-02  8.4886501033531570e-01  7.7086233517927405e-01  2.5112201261419272e-02  4.8842460632936520e-02  1.5814408932646545e-02  3.3773046675264658e-02  5.6928613145431267e-02  4.8363688673928762e-02  3.2112605036881278e-02  7.8904162148209411e-01  4.5040161718290304e-02  7.1908770422058177e-01  3.1740390297769365e-02  8.4495460974389869e-01  6.9534396816253352e-01  5.9247082772224423e-02  7.1337992728167221e-01  5.7462012063530493e-02  7.8844976683378393e-02  4.0926325858819015e-02  6.2646942794068572e-02  8.1998252933044857e-01  7.6606548210332470e-02  6.5405364190332591e-02  8.1567700728147563e-01  5.0625359190526138e-02  4.6629836189094429e-02  5.3905892483837772e-02  3.4867137244879505e-02  3.7079738032619491e-02  4.0491579010242348e-02  2.9637869715705211e-02  4.2322187389982988e-02  8.6430174186854433e-02  1.2963309513512494e-01  5.2863850957950181e-02  5.0728607812208851e-02  3.4561094693013342e-02  5.0295488086423881e-02  5.6871772124622744e-02  5.7574289646455980e-02  5.6817537530332828e-02  5.9066578158846271e-02  6.1498046125333293e-02  5.3432734102277973e-02  7.1889618754115994e-02  3.5109440630391141e-02  5.1614006253482260e-02  4.7433647568425809e-02  1.9116668710758143e-02  9.6233893061796541e-02  7.7835998476956758e-01  7.8601312915162558e-01  1.8627852698976519e-02  5.0197414286542515e-02  2.2821372166554884e-02  2.3349085507071630e-02  4.5619722403873172e-02  4.7668208573807637e-02  8.4962025429888188e-01  6.7502020182751171e-02  1.3365162228843158e-01  7.2316463497852659e-02  5.9625150946183175e-02  5.0886892016493733e-02  1.8154068143150754e-02  3.7600850243292155e-02  3.9200453976173652e-02  5.3313744115218359e-02  3.9030074991500102e-02  5.6134658328370439e-02  1.5220638875287431e-02  4.6330070933605812e-02  5.3321038587097143e-02  1.3805243487283280e-02  6.7308188612037093e-02  1.3038209538743215e-01  6.8058600213141682e-02  7.8102900914218598e-01  3.8621003697299462e-02  5.7121488586279308e-02  7.6893865818351204e-01  7.6776694270436152e-01  1.3227018585295622e-01  2.9361723918356217e-02  2.2064695462842530e-02  2.6141519319466917e-02  5.9133755027817425e-02  7.7644885201364544e-01  5.7241401008672116e-02  2.8718827943944435e-02  7.9225910762325458e-01  2.3828365003062766e-02  6.0138761323475814e-02  7.7126129963648327e-01  2.2115939095960532e-02  6.8263163022505369e-01  7.7790501588959859e-01  8.2719920065118679e-01  8.1644949526093835e-01  6.3204448449131603e-02  4.8354276983013290e-02  5.0866642933899003e-02  4.7038272133697871e-02  1.2976165130756445e-01  7.7100488451625249e-01  4.3835087908972198e-02  2.6164722368386805e-02  2.2546500106531042e-02  7.8764700137419441e-01  7.9442220614873638e-01  2.9824058276792093e-02  5.9265881732685627e-02  1.6211281687298698e-02  8.0696033260963207e-01  8.0584040063135820e-01  3.5639603229761341e-02  4.5007681995293883e-02  2.3410698212583000e-02  1.1555109144860456e-01  5.0774086206866131e-02  4.8809546817903837e-02  4.4373392912857086e-02  2.8206702595525927e-02  5.3907019287865621e-02  6.2310799421450860e-02  7.9124101595244856e-01  3.5035295948949934e-02  6.4912902597365063e-01  5.4423786520855749e-02  7.8758655152786322e-02  2.9323781801839404e-02  7.9480585503590551e-01  1.2943108492319803e-02  3.6260152011587547e-02  3.7571708768486499e-02  4.6192824949908756e-02  2.8261896511030032e-02  2.5885845432773391e-02  3.0504681766335001e-02  2.9229003409945692e-02  4.0788791225065131e-02  6.7280039777398479e-02  6.9154506882698544e-02  6.0275522849465045e-02  5.3542435911898445e-02  6.5641265387616624e-02  5.1417712111099953e-02  6.5279046703322768e-02  5.3009829011436908e-02  1.2517520152186074e-01  5.1186677867990416e-02  5.7979230095646712e-02  3.9680090303883864e-02  4.1230642712094159e-02  7.9733430628349355e-01  4.2935504311936809e-02  4.6473385624357190e-02  7.6369643853983971e-01  5.7262565398781634e-02  5.4766143592155737e-02  4.5154222025508998e-02  1.3594122002434131e-01  3.2477430830596010e-02  1.3664321727007003e-01  2.4243678525989021e-02  5.6936786237131345e-02  2.6001766021710199e-02  2.4080363636045893e-02  6.4472706231694221e-01  3.5368119367293505e-02  3.0252839404808812e-02  2.5591374703570823e-02  5.3147122802111216e-02  6.3981435231253014e-01  6.5591560446683878e-02  8.2350642476262359e-01  7.6617716475906428e-01  1.1268914796314085e-01  2.1113891703651019e-02  1.9243552141504718e-02  1.9061085812351043e-02  6.4315618881355185e-01  4.4605440456967294e-02  5.5871882681402911e-02  2.2285308448199977e-02  2.4586972977358578e-02  2.5597277481169408e-02  4.6774063009986086e-02  7.2908238969834360e-01  6.3208392750975939e-01  2.4579472660287205e-02  6.4201878762227227e-01  5.2912677017133168e-02  2.8800189397790114e-02  4.5802724540439259e-02  4.4000503753421433e-02  5.2442682586580448e-02  2.3363647091289224e-02  2.9485541740980236e-02  7.6080237801324158e-01  2.6391713683018892e-02  3.7448141236794602e-02  7.7667742454924682e-01  1.8575863719743273e-02  1.3254340160371452e-02  2.1211934134183930e-02  6.4363110113627442e-01  4.7974161907954581e-02  2.1285463325370471e-02  1.5275984386733464e-02  5.7892762832989345e-02  7.7294035747729439e-01  6.6077089971492164e-01  -2.0590688188946282e-03  3.5176023603142828e-02  1.0090072845578296e-01  5.6333867642526410e-02  4.2077369413554180e-02  6.4045491658738896e-01  8.0881922826919983e-01  5.3168418873028381e-02  4.4285915510479605e-02  7.5824126820676274e-01  8.2134117573066153e-03  7.6884466238405802e-01  5.1400020090828689e-02  8.4307047498321200e-02  3.2299261106494025e-02  8.1108148676343839e-01  8.3426274445943094e-01  1.4423264024565158e-01  6.3216889640407142e-02  6.5288620355914789e-02  7.6933784870214572e-01  7.8329880807660390e-01  3.2392423044799182e-02  4.2081923664795677e-02  2.9896392051400499e-02  2.4178114741142401e-02  2.5115388836926454e-02  1.6577837755964164e-02  7.5886441935985294e-01  4.9069095180458176e-02  3.0145276686956466e-02  5.3697870177068167e-02  7.6527266289529172e-01  1.6309780378571621e-02  2.4654487457818519e-03  4.1580573508272975e-02  2.6699179404846465e-02  6.4199317597551389e-02  2.9259172422371096e-02  3.4657286694839778e-02  3.3314220494991054e-02  2.3376137147580110e-02  5.3085858806482741e-02  7.5839883607034642e-01  5.4909607538393898e-02  5.7471706210821163e-02  5.5257348094346695e-02  5.5613107581025487e-02  2.6872653868044136e-02  2.8001640118308420e-02  3.3630803550322115e-02  6.1197953747135804e-02  5.2900204372877464e-02  2.9286515210939553e-02  4.7504147050677716e-02  5.8230298103080953e-02  4.2481470415992206e-02  3.6849072331538793e-02  4.1410384987869038e-02  1.4392825805799866e-01  2.7796505332752307e-02  6.0341800425616883e-02  5.7103953105274170e-02  5.4676014593943598e-02  5.9031497272777983e-02  3.1570384106756062e-02  1.4992601195933483e-01  4.0409745511689514e-02  1.8004186023454168e-02  5.7224391837019765e-02  8.7296550006117080e-02  3.9419226560648696e-02  9.4011333545831091e-02  4.1310740086734250e-02  4.9688220515544772e-02  4.3505267220610662e-02  5.6127461208712252e-02  1.5509248037472262e-01  1.4191332881303453e-01  8.2588201456245380e-01  4.7340624912290387e-02  2.4665297623597749e-02  5.5408418583769839e-02  2.1065525115531423e-02  5.7835113512678470e-02  4.7922859319895809e-02  5.1171911875813790e-02  7.6061027653190594e-01  2.8138329899585486e-02  8.5638466966347165e-02  5.4113412162465249e-02  4.5660354581019434e-02  4.0726954111979276e-02  6.3703366423574825e-02  6.5994755498223936e-02  6.3649200010306287e-02  7.7314901540300296e-01  3.6462989017904797e-02  9.3630562956305258e-02  9.6285443557513103e-02  2.6926871640218248e-02  1.3651161533804305e-02  1.3384816524907124e-02  6.3003655190011512e-02  3.2272310583354322e-02  4.9802402066815854e-02  3.5687737728101909e-02  3.5923299566183925e-02  5.6632581431393172e-02  1.3651699952151430e-01  5.3154192347614954e-02  6.7536149057202774e-02  5.8595730966831273e-02  5.4992376434216325e-02  2.6082958722041246e-02  7.7527556294102754e-02  6.5012829051631554e-02  5.9503956095819141e-02  5.8607595690090497e-02  6.6718346363867448e-02  7.1441674997502125e-01  8.5016401903551664e-01  9.3235199205787669e-02  1.9643864582191171e-02  5.5324466567898675e-02  4.2828265813393725e-02  7.6559641500890074e-01  1.5432049109156537e-01  4.5073596165221767e-02  4.2389497782770673e-02  4.1635578932017712e-02  5.4957581323895402e-02  6.7216863254775341e-02  6.5749206522894010e-02  6.6182824839894933e-02  2.3503106258166109e-02  1.7427440242051909e-02  2.7246454598789088e-03  1.5833644478442585e-02  2.1751608514791947e-02  6.0468682824766508e-02  4.5229074219074544e-02  2.2687894796286075e-02  9.9763139635813208e-02  5.4923038233028708e-02  2.0450119705312762e-02  2.4880405341572012e-02  2.7558832315660104e-02  7.2753663183395811e-01  4.9021888850698705e-02  1.3468181770461501e-01  3.8423270743759425e-02  8.4901454782133423e-01  8.6270956501397877e-01  2.8071632292502365e-02  2.0586927249855582e-02  4.7204877408638962e-02  2.4775589917046134e-02  2.8090148038475191e-02  1.7688145243138484e-02  4.7584224749666296e-02  5.2167542070664125e-02  8.0328568186803773e-01  1.26310909525