<?xml version="1.0"?>
<VTKFile type="UnstructuredGrid"  version="0.1"  >
<UnstructuredGrid>
<Piece  NumberOfPoints="1127" NumberOfCells="2108">
<Points>
<DataArray  type="Float64"  NumberOfComponents="3"  format="ascii">-1.007705815416071 0.1262886141077315 0  -1.00234589147274 0.01702044625208977 0  -0.9845744738998785 -0.09121136906095179 0  -0.9543489556964302 -0.1970616747087642 0  -0.9120817004098266 -0.2988753026441329 0  -0.8586522867323502 -0.3949515945441702 0  -0.7945564998611827 -0.4842676009909185 0  -0.7213983466441696 -0.5654176484806943 0  -0.6420075075456544 -0.6362295299638389 0  -0.5581791404929548 -0.6965731902900386 0  -0.469294535645049 -0.7476892454319216 0  -0.3764280608456672 -0.789296908913799 0  -0.2800805503439438 -0.8213078089179708 0  -0.1808103016341856 -0.8438648101801586 0  -0.08031973503733868 -0.8564796976722159 0  0.02053859888931199 -0.8593018812738454 0  0.1209729310181277 -0.8522448115982525 0  0.2209141043466951 -0.8354086525062564 0  0.3187827415093201 -0.8087914206659013 0  0.4141462035598584 -0.7724803001280317 0  0.5053448952099803 -0.7268375138552 0  0.5921505719872128 -0.6718436985081235 0  0.6740710169469126 -0.6075263694073154 0  0.7508081114531319 -0.5325017514659472 0  0.819814982539436 -0.448414743650789 0  0.8794936517312915 -0.3568486812525518 0  0.9286086691550393 -0.2581883205704335 0  0.9663420073910363 -0.1543209662039041 0  0.9916835029987421 -0.04749986345632974 0  1.004790310119378 0.06153503703710447 0  1.005059853195543 0.1712010322384465 0  0.9929921294348293 0.2797697356994223 0  0.9688705256656245 0.3861924340069559 0  0.9323893323423675 0.4895755475898153 0  0.8845714891381932 0.5881800783885525 0  0.8263907336948499 0.6801631026191671 0  0.7579648772487934 0.7657435891411958 0  0.6805903814636628 0.8431785100162237 0  0.5952793216772451 0.9115552783898944 0  0.5028468947771096 0.9705500460631947 0  0.4044633092284485 1.019165792703929 0  0.301912622852859 1.056726700110216 0  0.1952196047916966 1.083445686327844 0  0.08669372086095588 1.098616358865597 0  -0.02277009835581707 1.102068021187263 0  -0.1318583151546926 1.093741796940772 0  -0.2400561166729327 1.073726452180062 0  -0.3451950079424163 1.042435126395692 0  -0.4458975083713178 1.000215411676802 0  -0.542084234254199 0.9472070124707028 0  -0.6316666730674205 0.8843330576424019 0  -0.7135723182494343 0.8123700849551208 0  -0.7872300592015629 0.7318328805568346 0  -0.8519121259995658 0.6433062681650065 0  -0.9061469600272272 0.5482472467389835 0  -0.949450424765802 0.4480188211576838 0  -0.9810681652652746 0.3433969266167093 0  -1.00078838255042 0.235212213362975 0  2.292506973693818 2.037254824357357e-06 0  2.283783401147625 0.1998039194980376 0  2.257680151850013 0.3980866187871209 0  2.214388968391076 0.5933415873514106 0  2.154253315574585 0.7840822592054558 0  2.077712904689895 0.9688531012286073 0  1.98536966727795 1.146255586828587 0  1.87790967667802 1.314926549811863 0  1.756163031798782 1.473597199593621 0  1.621047599698364 1.621044325297455 0  1.473595831915478 1.75615957997145 0  1.314932249097085 1.87791245287781 0  1.14625291336242 1.985366633538023 0  0.9688554081428074 2.077714340223725 0  0.7840831590987902 2.154250018229884 0  0.5933444927362164 2.214389921543654 0  0.3980894868735221 2.257677482465267 0  0.1998078037865297 2.283787357404366 0  -1.094716424194917e-07 2.292505329311597 0  -0.1998056514020776 2.283782464173914 0  -0.3980931492044124 2.257682259130823 0  -0.5933449071163572 2.214395806695447 0  -0.7840827713158177 2.154250365161288 0  -0.96885560164597 2.077715697947891 0  -1.146255354161865 1.985372324575253 0  -1.314928472607834 1.877909516167219 0  -1.473593872115463 1.756160360325763 0  -1.621046394428859 1.621044995295137 0  -1.756165104121266 1.47359566068559 0  -1.877913397326454 1.314929550744009 0  -1.985367160084862 1.146251569361215 0  -2.07771391074443 0.9688518071078697 0  -2.154253941329246 0.7840807702779564 0  -2.214392541255817 0.59334390461647 0  -2.25767914997475 0.3980904242279999 0  -2.283779506991761 0.1998053947736139 0  -2.292506447220236 1.697126298841319e-07 0  -2.283783656251174 -0.1998050223664972 0  -2.257678698202883 -0.398089690571461 0  -2.214386299586871 -0.5933431965851971 0  -2.154251411075217 -0.784084565559067 0  -2.077717469518014 -0.9688543811580549 0  -1.985370880938383 -1.146251446681364 0  -1.877909299937073 -1.314925123258027 0  -1.756163165585634 -1.473596525648169 0  -1.621045195814302 -1.62104455823855 0  -1.473594846744117 -1.756164657697067 0  -1.314926513691894 -1.877909800238891 0  -1.146253885259648 -1.985372267083357 0  -0.9688590232706146 -2.077718345631164 0  -0.7840827783633271 -2.154250176446295 0  -0.5933454821650007 -2.21439507417946 0  -0.3980887245750542 -2.257681740712851 0  -0.1998056857358692 -2.283786554088953 0  3.597515251460571e-07 -2.292505444291354 0  0.199805053258945 -2.283787252973543 0  0.398088700857654 -2.257677713877556 0  0.5933451946506338 -2.214394736394673 0  0.7840834275034821 -2.154249759001762 0  0.9688567025151067 -2.077720067219045 0  1.14625305841222 -1.98536727106073 0  1.314928486200936 -1.877914619937932 0  1.473596221130189 -1.756163712480638 0  1.621045449268847 -1.621044288940372 0  1.756163709017039 -1.473596342592507 0  1.877908149394719 -1.314925753109463 0  1.98536543392653 -1.146249708566965 0  2.077713477627367 -0.9688519588298888 0  2.154246793950338 -0.7840813361796379 0  2.214386343575801 -0.5933434270475516 0  2.257673399800689 -0.3980886404878194 0  2.283777981599548 -0.1998049999508862 0  0.001170068772322803 0.1349069336569196 0  -0.06899793922508091 -1.581382041181378 0  0.6452901603715074 -1.449259604997618 0  -0.8566351644134966 -1.345993903696654 0  1.206286773006252 -1.058383593338293 0  -1.361367610561403 -0.8704851465262353 0  1.553566390768442 -0.4951566816004757 0  -1.627572021336634 -0.2211239835670871 0  1.64474478141424 0.208304340621319 0  -1.60850116086332 0.4135406753827786 0  1.461002852640327 0.8151103229698862 0  -1.309830935943333 1.052198669254143 0  1.034432261608183 1.337498343838377 0  -0.7864572681383106 1.500279528253995 0  0.2231945057627394 1.683430209619739 0  -0.3077443391498781 1.736137259610249 0  -0.5036071139067247 0.05612073113360853 0  0.5091987848022488 0.1284963578316589 0  -0.3045809832017365 0.5194074904398361 0  0.2483721155065904 -0.2924462102368949 0  0.2515234143856739 0.5534274790669643 0  -0.5447988608965048 -1.725488055209374 0  0.5931371402159661 1.42453495541296 0  -0.2410080210716483 -0.3258349713479587 0  0.4035342824237113 -1.817959313030468 0  1.140508178427862 -1.484074040286055 0  -0.4097688369014716 -1.294833896704854 0  -1.274687343545208 -1.389097741119712 0  -1.738094012796831 -0.6420358243138136 0  0.2519469661711083 -1.27095834482182 0  1.683378166346425 -0.8768494048318135 0  1.881300122753081 -0.2514815052093279 0  -1.678429936777956 0.8664045544934451 0  -1.900597708756993 0.0778423494356863 0  1.820917576358581 0.5677732810514875 0  0.7816480253312973 -1.055996550543999 0  0.8740480940300179 1.698358710590355 0  -0.9428952821891675 -0.9391206133380643 0  1.417703892031496 1.29147359126316 0  -1.171870493003525 1.519367966881642 0  -1.289565530918136 -0.4683975706316112 0  1.173152099869487 -0.6563320456157488 0  1.394744396910241 -0.1224212509594216 0  -0.2283997644883753 -1.916878644571515 0  -1.393075092342417 0.08455229692563239 0  0.7601997825255398 -1.789735106797676 0  -1.352467966361826 0.6801940198897202 0  -0.9101760237506065 -1.70882622282743 0  1.339629912659846 0.4208423843962604 0  -0.06715602178542258 1.461362795306438 0  -0.4369415752573392 1.393160240579737 0  -0.9234806474002885 1.135549287701055 0  1.100293646859532 0.9527189832252246 0  1.446148001932827 -1.316368464858455 0  1.962130806256131 0.08011605798428686 0  -1.690091595724906 -0.9771323630318896 0  -0.07995173914794614 -1.207069840679353 0  1.874015633738195 -0.6041024054333819 0  -1.8892975625379 0.5902675623372856 0  -0.04022139062829512 0.7549660026261525 0  -0.6496413988331881 1.829152257125081 0  -1.959270842089869 -0.2611046143851465 0  -0.6184332840733211 0.3733074403133882 0  0.5444314987685693 1.85537559201956 0  0.5744117461671623 -0.2101536465660648 0  -0.0191811585280303 1.941969414112363 0  -0.6277826015210868 -1.049874749721452 0  1.675986296222924 1.061555612553032 0  -1.446629471846748 1.348880824849991 0  0.1028949259403086 -1.9653262985683 0  0.5787690775513941 0.4550310578535338 0  -1.089082141270407 0.8358688439066181 0  0.7725421035112878 1.166468746763867 0  -0.5842677515863274 -0.2511374786031227 0  1.253651871849499 1.549297651450261 0  -0.9667099209977594 1.744186522896189 0  0.01706874144624073 -0.5204367074883743 0  0.2851201145216423 1.378251281913425 0  -1.288517817190233 0.3741693721347399 0  -1.047028142127201 -0.6583328173289137 0  -1.547771689129921 -1.248436884872673 0  1.209990607093401 -0.3634939956715578 0  1.171299570079397 0.6635155121974089 0  0.4778775512645285 -1.07756543126835 0  0.2739732578596299 1.973568094467161 0  -1.340347909187449 -0.1930209611354865 0  0.9902339281819776 -0.8687822315871419 0  0.2296185873546515 -1.571743208836488 0  -1.082143659717226 -1.18332197165986 0  -0.01958037850741762 0.4272257701244703 0  0.9013732583888379 -1.319488513307238 0  1.372171319719376 0.1489037184658317 0  -0.672712309827296 1.249502374096855 0  1.440229613619876 -0.7418661738349875 0  -1.648693927776656 1.150378109987231 0  -0.2854370930665562 2.00989118220086 0  -0.006893571311916539 -0.1532733838142752 0  -0.2373042986113717 -0.005668950212972313 0  -0.238197321215408 0.261727317944479 0  1.673354636452304 -0.06669786697851848 0  -0.756834175614985 0.08766899830403839 0  0.7521862360368866 0.2012421531478695 0  0.2194897540353826 0.8111077834471624 0  1.719363843817817 0.8051346227999758 0  -1.991523362572331 0.3374697558279985 0  -0.3058474440822714 0.7801865643464729 0  -0.5417307391951182 0.6227091258868739 0  1.988370652062952 0.3531333542038817 0  0.4212188793034064
[...]
<PointData  Scalars="f_2797-1"> 
<DataArray  type="Float64"  Name="f_2797-1"  format="ascii">3.3297251704591674e-01  3.3555931030820135e-01  3.4354358163593951e-01  3.3172922055286602e-01  3.2772749718552607e-01  3.4186140754194910e-01  3.3964459339625391e-01  3.5221109239841458e-01  4.2696853522847561e-01  4.3891019492357958e-01  4.2539159800736959e-01  4.4131904446492110e-01  4.3101894966604387e-01  4.4237271269277534e-01  4.2425512984878183e-01  4.4771087032292478e-01  4.3200144823749032e-01  4.3123564320998475e-01  4.3532862057462141e-01  4.4216783038551438e-01  4.4616468835116568e-01  4.3018065569771108e-01  4.2031047427653828e-01  3.3312532867382921e-01  3.3294065500355269e-01  3.3832829482846599e-01  3.1381166754413348e-01  3.2763066783612133e-01  3.3194552106746339e-01  3.3806087253776756e-01  3.4747963189412751e-01  3.3892616354850463e-01  3.5770599002628234e-01  3.3591864631069723e-01  3.5788430843972707e-01  3.5280880004418080e-01  3.5798072997930552e-01  3.6862081713333905e-01  3.7297683942840348e-01  3.6697568342400833e-01  3.6799828179961602e-01  3.6870343088235513e-01  3.7305415820633309e-01  3.7551733526440928e-01  3.7940676076096397e-01  3.7008939965041721e-01  3.7189590972237324e-01  3.7797118939269148e-01  3.7623677846401898e-01  3.6588700667683088e-01  3.6526052253504843e-01  3.6203838659082649e-01  3.6492121559974428e-01  3.5746793179845304e-01  3.5058107647137277e-01  3.5615321431772939e-01  3.2625801805755700e-01  3.5409779376639122e-01  -5.2684446687395831e-02  -5.1868063673173349e-02  -3.9980634517986655e-02  -8.6320811007321141e-02  -3.5933104592391005e-02  -9.5427578983565173e-02  -2.9184843068996137e-02  -7.4714379082411103e-02  -1.9192566423483125e-02  -6.3056658237554339e-02  -6.2822888978556965e-02  -8.6191817231512889e-03  -6.7935182608657385e-02  -6.4384221943030492e-02  -6.0704838811769940e-02  -5.8983982421950576e-02  -5.4226205807670180e-02  6.3503783399447037e-03  -5.7641179110215456e-02  -4.9978085297965533e-02  2.7680181274915392e-03  5.8651532464701148e-03  -5.8755220682102816e-02  -5.4170762103598391e-02  -5.6086617573732425e-04  -5.9226987447119434e-02  -6.7069926266796295e-02  -6.9010146660886229e-02  -1.7182018813490255e-02  -2.3103454345024223e-02  -7.8668417196756213e-02  -9.0739785572708398e-02  -3.8366747063430372e-02  -4.5555245729009389e-02  -4.1428356864448637e-02  -9.1362074645015973e-02  -5.5314255795456152e-02  -4.7548586851199767e-02  -4.7723709068375947e-02  -1.0864319605338960e-01  -5.2060428000995765e-02  -5.0128156190567659e-02  -3.9712046317695586e-02  -8.8570177234932920e-02  -2.4354797053625154e-02  -8.2763398411202338e-02  -2.5203887283397255e-02  -7.2370829699916372e-02  -1.3635603503688422e-02  -1.4015420461793136e-02  -6.3983499108119068e-02  -4.6687357662214572e-03  -7.9442522999309331e-03  -4.8839494586641321e-03  -5.9900344449520304e-02  6.6082975707071742e-03  -5.5307948175597851e-02  -6.5196361933270944e-03  -6.5488426475515726e-02  -1.1804501852491704e-03  -6.6612453019891035e-02  -1.5459267443160235e-02  -2.2910228553040726e-02  -8.2858763314849870e-02  -2.0306613162361171e-02  -9.3760037273729127e-02  -1.0318815640470450e-01  -9.6737825785558298e-02  -1.0739514068121095e-01  -1.0749710663975277e-01  -1.0705038534658663e-01  -1.0594382468443392e-01  8.0488604006730780e-01  6.3534504997825259e-02  5.8134958565223653e-02  5.1781191283499436e-02  3.8766239397355823e-02  3.0145999923632212e-02  2.2750857198741915e-02  2.2105637683648625e-02  2.6364132830753461e-02  3.0912484454318673e-02  4.0244653346357143e-02  4.8070130225282059e-02  5.6865591300245835e-02  6.3470943660528398e-02  7.0046074976319470e-02  6.9602416790337546e-02  7.9247351093462270e-01  7.8978733921940003e-01  7.7939353753172036e-01  8.4409586988066054e-01  7.7888847995034294e-01  5.8741223588621647e-02  6.5517922534336373e-02  8.4770035065344096e-01  6.0336545838409375e-02  4.6807810428273373e-02  5.8662081796129022e-02  4.1304824669485658e-02  2.2608970824659017e-02  6.1743464688874372e-02  2.5731283052609005e-02  2.0392889740148891e-02  3.8145686847383328e-02  2.2937091153367947e-02  3.0139836861604520e-02  4.9685167995394020e-02  6.1203746456166518e-02  4.0233339976321426e-02  4.8024103463739205e-02  5.5624535471945104e-02  1.7465266785718313e-02  2.0297287110462914e-02  1.8398309218814933e-02  5.9973756475942615e-02  1.8307146235192986e-02  5.4819878977741675e-02  3.8121373671892965e-02  5.1426730610667749e-02  2.7005140786980096e-02  6.7237404659108935e-02  6.6674331724709407e-02  5.4916770546773068e-02  4.8370452093045885e-02  3.6205300569346510e-02  2.1485558110874818e-02  2.5630610049050411e-02  6.4100441738177028e-02  1.9706274276436002e-02  2.9389005323212113e-02  7.7256444830112891e-01  6.4601679271109380e-02  1.8737239649813883e-02  7.7000007491049460e-01  6.5381562238980992e-02  8.0152595932554049e-01  6.8235989840415595e-02  5.1379467600810733e-02  3.9025107614168886e-02  4.7972014788706642e-02  5.9667084718178408e-02  7.7244064717053929e-01  4.9792990224662943e-02  6.6468022010237382e-02  7.9476966519312930e-01  5.2269051320570512e-02  5.8788430537221575e-02  8.7361914499496107e-01  7.0079951040252678e-02  3.2692738000650229e-02  2.3322196522623809e-02  3.0845249564445208e-02  2.2161941123864076e-02  4.2917906177064723e-02  6.2162034585441936e-02  6.6398943059337454e-02  1.6984942082528161e-02  3.5417868535275024e-02  6.3057492626291095e-02  4.3690682827263391e-02  7.8663828650549683e-01  5.1587326060213025e-02  2.1249309146139216e-02  6.3828375328702419e-02  2.6846735614286878e-02  4.0585450516967735e-02  6.4773570421819318e-02  8.3134792753461839e-01  8.1248246397692736e-01  7.9324307589753174e-01  2.3128457290332274e-02  7.5749676593875703e-01  7.5624903906628904e-01  7.6094917602058898e-01  3.5582668723160280e-02  2.2501603883079792e-02  7.5646426572281900e-01  7.5257066299836017e-01  2.2374072899253385e-02  8.5841175623193000e-01  3.2717955979396633e-02  7.9230410907907711e-01  8.1285292597136061e-01  7.5060807972468413e-01  2.4166817468034781e-02  4.8543513209439788e-02  3.1048863340288297e-02  6.2009539399910746e-02  7.4134302755763257e-02  5.2625787577543638e-02  5.6096105184456006e-02  5.4403602110533474e-02  4.3677171589279896e-02  8.6308654598270640e-01  6.7669738728915865e-02  5.3407912809066857e-02  7.0647167000796068e-02  2.5612974571404722e-02  5.4139813375289295e-02  1.6177854736431088e-02  4.5169590933174956e-02  2.4363078804110015e-02  3.7291614215441783e-02  8.4263887780025892e-01  4.4608307736468469e-02  5.9830902240405173e-02  5.1321404846409222e-02  5.3325977720893654e-02  1.8456553710500243e-02  3.4797738057217267e-02  5.8811590624828609e-02  7.7914741998188131e-01  2.1742058814654894e-02  6.7839829853465150e-02  8.6260310072340141e-02  6.1657363889271510e-02  2.7136571818840067e-02  2.1613234686453039e-02  6.0339221439363523e-02  5.6288617344081457e-02  6.2411804606160838e-02  6.2935491284071637e-02  5.3958075389983026e-02  7.6976260503749228e-02  2.0463292361056054e-02  5.9473736830054282e-02  5.5523560701903285e-02  5.5943080883343023e-02  3.6528274799775655e-02  2.7838722833111260e-02  2.6561351473864396e-02  1.4786011259345184e-02  6.6189229422481011e-02  6.1264270635324893e-02  3.7755338329755445e-02  4.9598252819740452e-02  7.2611637041082103e-02  4.1833209144305945e-02  4.5360799420873101e-02  3.6488592976804027e-02  1.6201370344403235e-02  8.0360323143782927e-02  8.2132735315791780e-02  8.1931112535397599e-01  8.6980027729514342e-01  3.6230275285646922e-02  1.5427331171364298e-02  2.3971898943946832e-02  3.0686065825906012e-02  4.4617216960584724e-02  5.3900476131261768e-02  6.5190437959566722e-02  4.7514935063081222e-02  1.3660505080211440e-02  6.3002644214093892e-02  5.9914744481571094e-02  3.4990790926281705e-02  3.9079417664698524e-02  3.1806279221066394e-02  5.8382591895336615e-02  4.2530064838135900e-02  3.4129362051399548e-02  3.5110371798124658e-02  6.4056952329269029e-02  5.8932645216327677e-02  2.0952414269222924e-02  3.1860523971126299e-02  5.4168950319955979e-02  3.1454985967416055e-02  4.6942052301345946e-02  6.6666595099595868e-02  2.4602556016062972e-02  2.1864421030557225e-02  4.0530122048391806e-02  5.7894552364371993e-02  3.7173272808856364e-02  2.2588601017849763e-02  1.8256810929518700e-02  7.8371953405922823e-01  2.3537166334203427e-02  2.7975924323391417e-02  5.2076049567660383e-02  9.3138459722106007e-02  9.2378435442004289e-02  2.7066434925985705e-02  2.0269288280986786e-02  5.7714947298854229e-02  3.8795884442749631e-02  2.6562509823775816e-02  5.9590095507024050e-02  4.3532706470189621e-02  7.8549394319369456e-02  2.4071721793696363e-02  4.6137894415575004e-02  6.9092863649652128e-02  8.7542146411283495e-02  5.3211516412529754e-02  7.7715434554807239e-01  9.0060570694957834e-02  5.3773307823593415e-02  7.3628484052267584e-01  8.0578833364266200e-01  5.2504303527130307e-02  7.8341388620641472e-01  5.3315491750141879e-02  9.1557020108173487e-02  4.5313174295714395e-02  5.9909789956824382e-02  6.0152458206518364e-02  7.0822983711966589e-02  2.1389084404785881e-02  7.1087518113271153e-01  2.0484817481430658e-02  3.2884581108682649e-02  2.2589169174683701e-02  2.6722554589890417e-02  3.4236945104413607e-02  6.2632155985597737e-02  4.3796979409693119e-02  7.3762008665005563e-01  8.5225660416233906e-01  1.4909164882791667e-02  4.7219786481707542e-02  7.2952439673294822e-01  7.3091559759637847e-01  6.5784717179432586e-02  7.2381023991827576e-01  7.9455486279055565e-01  7.0632878197164670e-02  6.8346018338127298e-02  6.7219040498390462e-02  1.8106583818655611e-02  7.2763110347800264e-01  8.7318071861122748e-01  4.5269082549269792e-02  6.1632561815300489e-02  7.7397902549800357e-01  7.7601658078046198e-01  1.2416166367562527e-01  6.5237559072966939e-02  4.4959373394877072e-02  6.9431950387651042e-02  7.0042935436791326e-02  5.9807456075532187e-02  8.7975581565292379e-02  2.4212864165685459e-02  2.8728994799215393e-02  5.5558027776649574e-02  4.0076833569097012e-02  4.1678138140495591e-02  5.5019683386943519e-02  6.9511484229229992e-01  4.5130821001251847e-02  2.7846233147452614e-02  4.9668412509700867e-02  5.2883961876557070e-02  7.8382633484157138e-01  5.3369613159263009e-02  2.8302233728032013e-02  8.3270608353708786e-01  5.9959183527108682e-02  2.9731414490078906e-02  3.9503763391596919e-02  1.3966231011655849e-02  2.1172538147641633e-02  2.4327038846001587e-02  8.7544672489651498e-01  1.7614141160615378e-02  1.0025211106329457e-02  7.7845539650064022e-01  7.5483537939293854e-01  3.7963232219951570e-02  8.0350440896578210e-03  4.6101795413548731e-02  1.9425141552332510e-02  2.4494781029875092e-02  4.0586660171371816e-02  1.6160503545292557e-02  3.1610838916620004e-02  6.1763798493436432e-02  1.1208593061285717e-01  6.0684824048694089e-02  5.9497647692990575e-02  5.7187629474683421e-02  3.1518697232008619e-02  4.8439497202699688e-02  7.0215133803722096e-01  7.9812544431374144e-01  5.9641739019561199e-02  4.7042845154741469e-02  1.2763312686483588e-02  2.1729251076755631e-02  7.0196740113902334e-01  8.5841014037596208e-01  2.2174573595168556e-02  2.2672653436338099e-02  7.1694567096982409e-01  8.3554373735490639e-01  6.2124831510969529e-02  7.7747288442510076e-01  3.8375431203573562e-02  6.1849178287037627e-02  1.2887490816847791e-01  4.1113800537908571e-02  3.1545004983605636e-02  5.1886008316759727e-02  4.9538749354173663e-02  5.7511023351786372e-02  8.2849424009015893e-01  2.3937605872564969e-02  2.2507791575310781e-02  5.2707217715730295e-02  3.5851827678741802e-02  5.9530103299330776e-02  4.3428511632876664e-02  4.0768229888762178e-02  5.3084024198866750e-02  2.9462190103773520e-02  1.4286105591600951e-01  7.9407926003192164e-01  7.8610925255937714e-01  7.9436484635465254e-01  4.6784396579561925e-02  7.1766639334008994e-02  3.3212860307805681e-02  6.1617022266458890e-02  5.7307298897928238e-02  8.2307284930984581e-01  8.2865965945432196e-01  8.1577328726241127e-01  8.1636572089532788e-01  8.0318523020011856e-01  7.9855973974006589e-01  9.0679539901671061e-02  6.9011739929986979e-02  6.6318953828592625e-02  8.6694093134602590e-01  6.4124600673378315e-02  5.7823671862043666e-02  2.9269235325753158e-02  8.9844310877700728e-02  2.3613112917970178e-02  4.6132896936981929e-02  4.0097184917743708e-02  2.2132525179652075e-02  3.6862581868606720e-02  1.4328488815501811e-01  1.0365216585894028e-01  8.0209234023556494e-02  2.9436996929203665e-02  7.7528697845187922e-01  6.3639719060963287e-02  5.3860578735555401e-02  3.2609576385218803e-02  6.2442102867349081e-02  7.8159389906645416e-01  1.1344548802536349e-02  1.3790117299036626e-02  3.7913589344536133e-02  7.7900763610709423e-01  6.2129221731373224e-02  6.3585155640699387e-02  7.8625769827252534e-01  6.9245555961321026e-01  1.0479574692869509e-01  4.2110880004317203e-02  4.7144820244834830e-02  3.4299558062317104e-02  2.9693263695843804e-02  5.5682988164945810e-02  4.5393326410432762e-02  6.2868905806998512e-02  6.8106366178906960e-02  7.0344800944691185e-02  2.0231319282008324e-02  4.4861870195982631e-02  1.3165374743499078e-01  6.7524184345005189e-01  5.0943566140014794e-02  1.6385279135148381e-02  7.9891628004736870e-01  4.1734954685058737e-02  6.2871313688677280e-02  5.9969514918186466e-02  2.8571579268293058e-02  4.5539894170151640e-02  4.9761382354298826e-02  5.5052152837714641e-02  4.9042737852294641e-02  4.0662075082790385e-02  6.9414939274032472e-02  8.1932020674320497e-02  5.0261173441905740e-02  1.7760115105585183e-02  4.9294178595966263e-02  7.0443787406967898e-02  3.4465142185724711e-02  2.2364633660778024e-02  5.3016442658000484e-02  6.6053051280899097e-02  2.2672455599167852e-02  1.7941930659623021e-02  1.6734832846171051e-02  4.0941633951703485e-02  6.9115723445144106e-02  4.6050214127110148e-02  3.7695354669214469e-02  2.8167749817730743e-02  7.6977361638571939e-01  5.6859289016202123e-02  1.9417537830465091e-02  2.9073085207175182e-02  4.7983814057933255e-02  4.3053796430206084e-02  4.2138140012406948e-02  1.2028019389150430e-02  6.6087508908646275e-01  2.1507541538147372e-02  4.5176428446283973e-02  8.2627848890748334e-01  5.7184222157494476e-02  8.0412519541795868e-01  8.0569134669131637e-01  5.6841357178128070e-02  4.2507391065720747e-02  7.8203107914721215e-01  5.1512461193807819e-02  7.6928883570308870e-01  6.6505161459212980e-02  2.0802503107346430e-02  2.4554053945865260e-02  1.8775423164284544e-02  2.3318360387969323e-02  5.8906647970978873e-02  2.4365746744691892e-02  2.6840879679414981e-02  2.6859649243082161e-02  6.8243685139074209e-02  6.6786299585921555e-02  2.6947399810438009e-02  2.4290417568866806e-02  6.1282740259359030e-02  4.8264670861372372e-02  6.4899401122736289e-01  6.8258959903540459e-02  2.2144263413631734e-02  6.4045886357548196e-02  4.3802637579801393e-02  3.5841929659951352e-02  8.6719112402641324e-02  5.0462405413632741e-02  6.3165952672099890e-01  1.8360475451368794e-02  5.6191088320981145e-02  6.3197416702988854e-02  7.7475894378886845e-01  3.5405950668737189e-02  7.8404626667373328e-02  6.4310638329247674e-02  2.4297764968965224e-02  7.4723737820960090e-01  7.8475707194021638e-01  1.5481585006031544e-03  4.2230738852538224e-02  8.0551703346085204e-02  5.8236558980673855e-02  9.1695487785621699e-02  5.4995659656635838e-02  6.4184972823161801e-01  1.2565096752975787e-02  6.0159511256970666e-02  2.6119176139432231e-02  6.1977835883347276e-01  1.1603637547285425e-01  5.8080007924989623e-02  1.8988644515325566e-02  3.7040033339925324e-02  2.1308705320009901e-02  7.6806530029690945e-01  7.6869770968103535e-01  3.3884654882578476e-02  2.2232483128275193e-02  6.3500575796658909e-01  7.8267728880716481e-01  7.6878889776296455e-01  7.2859424903817327e-01  4.8419846388351784e-02  1.2072138292951869e-01  2.8083702327505174e-02  5.1448051704003975e-02  6.2343543780039146e-01  7.8070042133542727e-01  2.4721365868258915e-02  2.0145597948970112e-02  3.2918250797177487e-02  3.7756789878788721e-02  5.7859749571119654e-02  1.5425702825722039e-02  2.3200571033264155e-02  4.0435949930343995e-02  5.1549254794672164e-02  5.9054726898929870e-02  7.5171555146352306e-02  1.3686509360234791e-01  3.5428988125737110e-02  8.3818259020202970e-02  2.7004548258626734e-02  2.1693213664017011e-02  5.9643489144516726e-02  7.6363199248656988e-01  2.2902955309790474e-02  2.2655990052564579e-02  2.4529171064197591e-02  1.0351496517560281e-01  1.9070232367764881e-02  2.3614248368738166e-02  5.6687629416993214e-02  8.5598690622754892e-01  7.5907567514516006e-01  4.3936344748238258e-02  8.4384959945391114e-01  7.9515264337517244e-01  3.3290587351467553e-02  5.0354859161612545e-02  1.6891934277521323e-02  3.0452536482325425e-02  2.0306542135115704e-02  5.6994749464754288e-02  2.8448806538183241e-02  2.9962762547129439e-02  3.1488748899775661e-02  5.5051266526726275e-02  7.7351373103801302e-01  2.3529111084359924e-02  -2.8922332104303707e-03  1.0696725981466778e-02  4.8045985290603548e-02  1.6052158263680746e-01  2.6582809209180294e-02  5.8267785311406306e-02  -2.0990669764049327e-02  3.0466203111548528e-02  3.6221590181411523e-02  2.6635902778051723e-02  6.0699469996235288e-02  6.1453473990653942e-02  1.6815454678640471e-02  5.7582853867753150e-02  6.3064596684147600e-02  1.6719942083777051e-01  3.7702270811395606e-02  4.2555537876881912e-02  5.1765656479870248e-02  5.6587521833141523e-02  8.3839177305767021e-01  5.3994606797307262e-02  1.6562026314541511e-01  4.4837528683282259e-02  1.9582489307041134e-02  1.4897318861286155e-01  5.6291099572678006e-02  2.0916347240143757e-02  7.3254733289209240e-01  4.6004911713573363e-02  2.2260013355508451e-02  6.1064555164014556e-01  6.1829750369867237e-02  6.3954242163126507e-02  1.4650735908284074e-01  1.4636265687541755e-01  7.5556662645411365e-01  2.1281144216152265e-02  7.8117678502446442e-01  8.1444149618471162e-01  5.1107920940026183e-02  6.5448608437993938e-02  1.6323983554112832e-02  6.6597339606057265e-02  6.7586389709248532e-02  2.0064223930195847e-02  7.8974475695639035e-01  1.5216076218818586e-01  7.2634443854820285e-01  8.6690238909065165e-01  7.7647208642746768e-01  5.1140838269345797e-02  1.0562794910358002e-01  3.0537553607634150e-02  6.9938729391745127e-02  7.0818828341799978e-02  3.9391359399976518e-02  3.4496291507477891e-02  6.6646950261107160e-02  6.9159099108749053e-02  5.8467153843653301e-02  7.8652452971048870e-01  5.1297204889889411e-02  5.4170643701501674e-02  5.0807644152208474e-02  2.6934927259247170e-02  4.9020999480146314e-02  3.5045307053898522e-02  7.5184123660774690e-02  3.2323118318943932e-02  4.9455595511948891e-02  6.1730066898716969e-02  5.5143423224569506e-02  4.6920196694326420e-02  5.3517656847973889e-02  1.5893179229777038e-01  4.6463865899797688e-02  5.3057537639882808e-02  1.3717095695147202e-02  3.8484732967128947e-02  6.1270008564648468e-02  1.1179960488588339e-02  1.0436501037830854e-02  2.0072761924748213e-02  1.8294603575904837e-02  6.1518572362565242e-02  6.2484546913148337e-02  5.7233638006940923e-02  6.2914806706216420e-01  5.7262035089106648e-02  5.1267015248741096e-02  1.6996664483874765e-02  1.7160949112232194e-02  6.3115516422083406e-01  8.5651553480684794e-01  8.4704366728674063e-01  2.4769644677010746e-02  2.2441476129045023e-02  1.6862114405198813e-02  6.3161603658386051e-02  5.1357571681892547e-02  1.9214012166077706e-02  1.7520773605812921e-02  5.7975243347064609e-02  1.4211543338149857e-01  5.4567637995391570e-02  4.8873831224474834e-02  1.5802061560496802e-01  1.3366179284886995e-01  4.7086008794033581e-02  2.1488171055398738e-02  -7.5368943832060118e-03  6.1370340455206596e-01  1.5377599164709599e-01  1.2814099124998013e-01  6.1979061445816025e-02  1.0605211118380682e-01  3.6116688608490641e-02  6.0054600817702329e-02  5.2155211524508201e-02  5.8052499935601853e-01  4.3209152213564798e-02  2.9906396823812704e-02  3.4561422267982582e-02  2.5867445352305313e-02  3.3140224384171142e-02  6.2468789603793831e-02  6.2617582891929063e-02  1.4941709429869313e-02  2.2124063107031640e-02  6.1151828599820524e-01  6.2194720184564956e-02  1.1996974853085433e-02  6.1885852823