<?xml version="1.0"?>
<VTKFile type="UnstructuredGrid"  version="0.1"  >
<UnstructuredGrid>
<Piece  NumberOfPoints="1537" NumberOfCells="2944">
<Points>
<DataArray  type="Float64"  NumberOfComponents="3"  format="ascii">-0.99055405231539 0.3454001927499488 0  -0.9886667667262742 0.2364688811470352 0  -0.9744423732318727 0.1275593461697225 0  -0.9479325129338019 0.02089756592263003 0  -0.9098591128656772 -0.08175543326716722 0  -0.8604865921854591 -0.179826053022512 0  -0.8006063474696057 -0.2715643670434586 0  -0.730905935371258 -0.3561546167952935 0  -0.6536278259442511 -0.4314473226245488 0  -0.5713021626730168 -0.4960185317199103 0  -0.4853438418965387 -0.5501246617171227 0  -0.3950625303500196 -0.5949373664725195 0  -0.3014692389274183 -0.6302604216077484 0  -0.2056843334624165 -0.6556775342240204 0  -0.1076685236722009 -0.6713909348484557 0  -0.0124530489083649 -0.6769174975844205 0  0.07920560182053393 -0.6731787384592679 0  0.1764802956792287 -0.6593121790394141 0  0.271429302460161 -0.6358563952625669 0  0.3652067779138387 -0.6025185105162263 0  0.4553263810757335 -0.5599651448413037 0  0.5417118866594257 -0.5080534713905467 0  0.6236429119874053 -0.4467422570561108 0  0.7013399145699147 -0.3747537711536632 0  0.7727713351012329 -0.2926143909411432 0  0.8350879933556663 -0.2026552576469332 0  0.8871546934059747 -0.10641466480385 0  0.928257272569792 -0.004566997478564854 0  0.9577638480554013 0.1008260326752672 0  0.9752824462277354 0.2089507870127368 0  0.9804936726280209 0.3179405716660799 0  0.973511088887809 0.4266935848545163 0  0.9543353209923205 0.5339120725164419 0  0.9233711864648347 0.6381425809271959 0  0.8808678068323057 0.7381767103718971 0  0.8279703772929535 0.8326699743082528 0  0.7648324116142421 0.9207605932856132 0  0.6923613074863841 1.001128815599661 0  0.6111720044876441 1.073391494436009 0  0.522312912721943 1.136248697760047 0  0.4276776217142194 1.188565866290756 0  0.3273569309305858 1.230523238491812 0  0.2233817946702203 1.261082415842734 0  0.1168129414836806 1.280218792134677 0  0.008518828362929139 1.287642066883461 0  -0.100488831803563 1.283094681631591 0  -0.2078941177846721 1.266668170266325 0  -0.3128159714542772 1.238539875267396 0  -0.4133850410481379 1.199327738473116 0  -0.5095121134911159 1.149412321676882 0  -0.59977664004555 1.089035170048662 0  -0.682611465285043 1.019380132940633 0  -0.7573586149206301 0.9411703484339344 0  -0.8232786133781299 0.8546715510109267 0  -0.8792278808517502 0.7614953046942918 0  -0.9242281793931554 0.6630537105102935 0  -0.9582490729258549 0.5598319329913157 0  -0.9803584978380673 0.4534527454571597 0  -2.796108754923988 0.1010087501228692 0  -2.796107569689644 -0.101011838402431 0  -2.781530798527059 -0.302507516270122 0  -2.752445134301386 -0.5024550775636956 0  -2.709064731773317 -0.6995334231694967 0  -2.651386415107567 -0.8936061428453632 0  -2.580177762744042 -1.082153078980289 0  -2.495238888619485 -1.265717669639452 0  -2.397314945233377 -1.442658322775925 0  -2.287108260708895 -1.611693180631319 0  -2.164813633164303 -1.77256893241231 0  -2.03142343728097 -1.923981900749575 0  -1.887138273195456 -2.065675460398884 0  -1.73315975072577 -2.196465867662095 0  -1.569959484462181 -2.315945680623024 0  -1.399172036381803 -2.422951861922383 0  -1.220463216818802 -2.517684267950193 0  -1.035426719440671 -2.599284098281941 0  -0.8453919667767329 -2.667157621904086 0  -0.6507084180942617 -2.721215206038909 0  -0.4526309190906074 -2.761076175592119 0  -0.2524437850193736 -2.786513925475078 0  -0.05027500580233133 -2.797472196666911 0  0.151240436681582 -2.793833265155824 0  0.3529150340811448 -2.775577253770958 0  0.5518024629504914 -2.742971851746757 0  0.7485162333623305 -2.695928819149125 0  0.9410977535182562 -2.634881343358647 0  1.128771552250962 -2.560106894998389 0  1.310564252672774 -2.471982939188431 0  1.485733113804643 -2.370859648242823 0  1.652547724717498 -2.257756385574425 0  1.811493954259439 -2.13234035971066 0  1.960475309996346 -1.996236050738637 0  2.099445951488576 -1.849526146470298 0  2.22728612786704 -1.693395565585594 0  2.343770815899871 -1.528084156688927 0  2.448035232205371 -1.35480862699906 0  2.53932233698186 -1.17484375669369 0  2.617489091752745 -0.9885224797268628 0  2.68199299986043 -0.7970819910935064 0  2.732522114445814 -0.60144582681916 0  2.768758781029637 -0.4029348685453791 0  2.790645442837222 -0.2016925118454136 0  2.79792951877527 -1.075458008535255e-06 0  2.790645813778668 0.2016919235433141 0  2.768767788203396 0.4027282760545655 0  2.732457881821756 0.6017043733958386 0  2.68205457534609 0.796842523599433 0  2.617459585117133 0.9885139691775078 0  2.539242107762488 1.175002902806082 0  2.447953872255856 1.354968150195955 0  2.343787779606116 1.528099945126411 0  2.227416528333248 1.693234140347487 0  2.099411652851082 1.849565275629348 0  1.960636722984597 1.996069126826854 0  1.811327473710395 2.132454410926096 0  1.652726513870842 2.257600043376608 0  1.485324497602807 2.371116215529269 0  1.310781741349811 2.471888456359635 0  1.128562601193304 2.560220361308328 0  0.9413340992423337 2.634819501959832 0  0.7485181663591839 2.695928805905316 0  0.5518031755214416 2.742972886417634 0  0.3529146609807788 2.775578084046536 0  0.1514756137606048 2.793801659260934 0  -0.05075449710525948 2.797465125749849 0  -0.2520050301666109 2.786552742160854 0  -0.452854536334606 2.761034834505463 0  -0.650680942963564 2.721221444637813 0  -0.8453963812641967 2.667158438373006 0  -1.035430847815123 2.599283363648171 0  -1.220685334435672 2.517599977672806 0  -1.398755517026671 2.423193548451194 0  -1.57014457417905 2.315797773082165 0  -1.733161557220938 2.196464767182681 0  -1.887323444898116 2.065524167860203 0  -2.031114890073999 1.924304033818854 0  -2.164810730694325 1.772530562089092 0  -2.287202887765845 1.61154950899793 0  -2.397427724819048 1.44248271447578 0  -2.495167368672522 1.265908324033647 0  -2.580073973264111 1.082368602874916 0  -2.651537396319975 0.8931531162782066 0  -2.708953499994152 0.6999606566330873 0  -2.75248050566349 0.5022283156141698 0  -2.781525855986758 0.3025351466619544 0  0.08036843526508965 -1.735539960926309 0  -0.9310016439164466 -1.496485234398458 0  1.082949031735514 -1.396243930479105 0  -0.006973798925497047 0.3114034781744651 0  -1.651134565943937 -0.7697813300746944 0  1.702135512800948 -0.6566603092459643 0  -1.890031345050587 0.1294374830170501 0  1.879446336082178 0.2531063791710246 0  -1.717467814835943 0.9461738845122423 0  1.656826285797216 1.051931823447226 0  -1.194217092568352 1.62203554656139 0  1.135197816704272 1.664303600633354 0  -0.4539653630072569 1.987412269587145 0  0.3324934405975307 2.01550455762546 0  -0.5294705674595864 -2.046247631966935 0  0.7900918766191903 -1.988499353350261 0  -1.594202691699151 -1.426796051103944 0  1.698073325574776 -1.39205756683498 0  -2.166117554489962 -0.4801477797380704 0  -0.2667658140069264 -1.255932505123667 0  0.4620404641543547 -1.246981144112583 0  2.176187684809064 -0.2724914343730116 0  -1.018147486460058 -0.9103952258052178 0  1.118317584284297 -0.8060044001707825 0  0.204274896323631 -2.263054402979384 0  -1.058512587310661 -2.014458371104198 0  2.118431790540878 0.7545637543822616 0  1.299844220703256 -1.874777601412876 0  -2.167249235690941 0.6386734814972957 0  1.403589833867158 -0.2244848877849148 0  -1.454550132454862 -0.243545655574176 0  -2.002730909253531 -1.134271351399972 0  0.4822832877699257 0.4006208428993893 0  -0.5002131728227313 0.3598036697325168 0  0.01036732208706423 -0.1720067468654307 0  0.1542385316963779 0.7739079711876962 0  -1.71273800106796 1.4866849619043 0  1.649031014355472 1.577796407374707 0  2.053481814313352 -1.029151698115802 0  -1.498957160677953 0.4679550331798057 0  0.8477299864297648 2.1192395596355 0  -0.9583723624357825 2.080079510766303 0  -2.331533777064005 -0.04084645354839583 0  1.439343448220558 0.4163538512886555 0  2.33382453870341 0.1593587902699891 0  -0.07159685692153893 2.304867246718182 0  1.183824892418836 1.172975031934995 0  -1.248748821105164 1.119708036405484 0  0.6439430116111453 1.630888453569521 0  2.065658601588391 1.176041941997753 0  -2.127850669076937 1.059970555408141 0  -0.6724423530450289 -1.154233764277505 0  -0.6701323832304364 1.579089993105274 0  -0.05159518413498092 1.749168724615793 0  -0.3266470833072668 -1.672907266264519 0  1.490893675892545 -1.020417770447793 0  -1.13632680149115 -0.5177172599597764 0  0.7150047941228983 -1.579077018316281 0  1.295207679102746 0.7874904657965281 0  -0.2975035832602125 0.7612394997803926 0  0.7062931086418072 -0.9140221211576413 0  0.4170920773774977 -0.0310357979550316 0  -1.289887296810649 -1.687663245028965 0  -0.4007490091810296 -0.06399918580551867 0  -0.2208014041671809 -2.353390529554297 0  -1.53073667979267 1.848714548436956 0  1.443340678039606 1.920521674333704 0  -0.6525810353313433 2.328242001556075 0  2.281259434902189 -0.6772591890992049 0  -1.235604901175002 -1.245645675278578 0  0.2996148131383736 2.399147730097826 0  1.788220578822962 -0.2881154109068597 0  0.09699478652312618 -1.340591047051425 0  0.4425697875544266 -1.83468406080585 0  1.736215201580438 0.6742937489841836 0  -0.9516068393216973 1.33849884140144 0  -1.78913288839378 -0.4239469439696291 0  -1.353135509672346 0.1152243538975468 0  1.071010047346186 -2.211248526929283 0  0.5940489838253252 -2.332851671655084 0  0.8606297345597599 1.336882369966383 0  -1.645353279182513 -1.791433319034587 0  -2.407128322559526 0.3467474160561667 0  0.2837620798037863 1.615299902338374 0  -1.276484682179515 0.753570620016541 0  -0.8123328213930515 -2.296042530250675 0  -2.267896909066536 -0.8523415743261787 0  0.1968137242964038 -1.014133962081724 0  -0.7767955453049356 -1.804965085688324 0  -0.1679160925448163 -1.995242711907079 0  -1.818541182444719 0.6160155151280337 0  1.654548468904839 -1.811679712802458 0  -1.949983186065057 -1.488117699115833 0  1.645888675098885 0.009707926106665109 0  -1.666657215414686 -1.101936178
[...]
<PointData  Scalars="f_5101-1"> 
<DataArray  type="Float64"  Name="f_5101-1"  format="ascii">3.5682393408544893e-01  3.4852304046627558e-01  3.5126395285633216e-01  3.5041379676412004e-01  3.3753999901215276e-01  3.4181294441106252e-01  3.4031912272001874e-01  3.5644284407368415e-01  3.8529400951806075e-01  4.1641492159220306e-01  4.3682398089758712e-01  4.4103871525915694e-01  4.3316888135554649e-01  4.1850216009504598e-01  4.0706495923834962e-01  2.7770558235128373e-01  3.6229889832239165e-01  4.3098607763185237e-01  4.3855349717230124e-01  4.3334777630811433e-01  4.3150080395006551e-01  4.3698460058279526e-01  4.2188549479036935e-01  3.7096041215496944e-01  3.5069445865940202e-01  3.5241631288009312e-01  3.4290867107134476e-01  3.4064828383745765e-01  3.5514073277054237e-01  3.4745676400690412e-01  3.4851589945228878e-01  3.5654473556662752e-01  3.5479514065807649e-01  3.4422849777035119e-01  3.5513225620987615e-01  3.5453573274699363e-01  3.6718215920917979e-01  3.6022106975512269e-01  3.6060426954399594e-01  3.6616219291118812e-01  3.6226111685743012e-01  3.7159724294180635e-01  3.6470316735169694e-01  3.7365624181525348e-01  3.6438083751238870e-01  3.6939915771522247e-01  3.7087523584747256e-01  3.7127996569226823e-01  3.6286040197120717e-01  3.6770646619335351e-01  3.6727230714730613e-01  3.7005755194575712e-01  3.6375391950177793e-01  3.5841446492337015e-01  3.6808455753561486e-01  3.5329441543460111e-01  3.5470569045074479e-01  3.5133527656675667e-01  -7.1705316081667747e-03  -1.0435442400385814e-02  -1.0167847616074106e-02  -1.0553091693864518e-02  -2.1341789717430122e-02  -6.8153542040520184e-03  -1.7376823504197607e-02  -9.3611687762524556e-02  -1.3498079975437477e-02  -5.6066433057203767e-03  -6.4122222275340736e-03  -6.3312790334260037e-03  -2.3210895575180007e-02  -2.8731244149419275e-02  -6.8096973535360173e-03  -7.2397675190975100e-03  -8.3128947077484555e-02  -9.1623977077240591e-03  -2.6703339041197561e-03  -3.2768859732713392e-03  -7.2149377741928256e-03  -7.0180808892516145e-03  -9.5834677778276998e-03  -8.0659706753492700e-03  -8.6549364934737898e-03  -7.3435666868749590e-03  -1.8148481886541216e-02  -8.3678445154749773e-02  -7.3818940018898535e-02  -6.7390770405068842e-02  -8.0629930154398170e-03  -8.9101408893071214e-03  -6.6444295590696008e-03  -1.2270971983497799e-03  -3.1954584598698167e-03  -1.0851026787255988e-04  -2.6834802414137559e-02  -1.4114018249128273e-02  -9.6158646918462973e-03  -5.3627446043356380e-03  -9.1261773982124778e-03  -1.3748599341930255e-02  -1.8014383845195561e-02  -2.0138480562744532e-02  -1.1868809572230556e-02  -1.6966629115376251e-02  -8.5817564996586965e-02  -1.4781203796953524e-02  -1.4291617802468709e-02  -9.7147435750077726e-02  -1.4488227025129287e-02  -8.8086812769358862e-03  -3.0418515905026636e-03  -3.1494392994265738e-03  -1.5047765702909132e-03  -6.3200844007201239e-03  -7.8827215318263533e-02  -8.4434840959695959e-02  -4.2111741878624763e-03  -6.7649175172451476e-04  -1.5763512876838691e-03  -8.9772269990969573e-04  -1.2050858986506357e-02  4.0135574730883845e-03  -1.7019375025059021e-04  -7.0267027395002304e-02  4.6685305538366568e-03  -2.3341968214879551e-03  -4.5893672282623738e-05  1.2757218263402691e-02  6.8868082500027818e-03  3.2140906773553711e-04  -8.2909554732518644e-04  8.3132324496098349e-04  -7.1282949238828552e-02  -2.1413834827667681e-02  -7.8507136060692682e-03  -1.1877333610557548e-02  -7.7960680025244491e-02  -8.6068668517302466e-03  -1.5302985012926554e-03  -1.6285898757243952e-02  -2.5246618564725688e-02  -1.5618639992032033e-02  -1.6955576050399591e-02  -1.3214054303592859e-02  -1.1697375762166690e-02  4.7997924772507139e-02  4.7971569214397852e-02  4.8850429274194987e-02  7.9785576974505290e-01  4.1658862610109829e-02  4.2047341198306457e-02  4.0910961008021003e-02  4.0697865878877318e-02  4.6285513684709942e-02  4.6203037229746648e-02  5.3949067541035615e-02  5.3282386437463670e-02  5.8869082244659615e-02  5.8419513690447344e-02  4.9854667766627718e-02  5.0051867358944818e-02  4.5173605331520386e-02  4.5586447558011001e-02  3.9112496821966249e-02  2.9122970156134961e-02  3.7970523651537032e-02  3.9439747553687093e-02  4.6118062915382597e-02  4.6254108789993996e-02  4.9141101686441264e-02  4.7938468982805259e-02  4.1749441223739039e-02  4.8100305450305983e-02  4.1845428988241069e-02  3.5686876237412200e-02  3.5853875652021874e-02  4.0676748104200910e-02  7.8311830629328949e-01  7.8491247253185181e-01  7.8003395604835968e-01  7.7787694848585265e-01  4.8899974776167504e-02  4.8273842606550356e-02  4.1274883927678530e-02  4.0731294658196235e-02  5.5148633953872331e-02  5.5544880568074238e-02  3.8171978367895765e-02  3.7649674239379233e-02  3.8117629232188914e-02  5.7899238603214269e-02  4.7533909201955937e-02  4.8335286700627790e-02  5.5935210683562532e-02  4.2760388910447381e-02  4.3013819571208596e-02  4.7411915110484683e-02  5.6648490742582540e-02  5.8190322246100677e-02  4.7477623755095531e-02  4.5611570833667597e-02  3.4467497641408072e-02  4.8531574957655310e-02  4.5478925985102253e-02  7.7645791634865269e-01  5.3628671650665254e-02  8.1328748217964708e-01  4.7627788224171512e-02  8.1312883352329302e-01  4.7838594851660705e-02  5.0148519879675113e-02  4.9449839659655541e-02  5.5408588577630855e-02  3.8145511490050611e-02  4.6628706784744678e-02  5.5798128056915218e-02  4.0081872404427128e-02  3.0708594605734336e-02  5.0008261800815093e-02  4.3076222969745039e-02  5.3108874841891460e-02  4.0085111492937690e-02  3.6918415595313642e-02  4.6255522604719344e-02  4.7418159409377256e-02  4.8673786943403755e-02  4.3306503518753044e-02  3.7735746962654942e-02  5.0438820620336243e-02  4.1744667847856659e-02  4.6337570376421763e-02  3.7162423661229765e-02  1.8847169213123134e-02  4.9539013013809037e-02  5.0246671242133417e-02  4.3565434793298774e-02  4.4284227804810512e-02  4.0341937037588572e-02  3.8602619039756807e-02  4.3569401248173788e-02  4.0652786250838610e-02  4.0134076069479774e-02  4.0248220560181583e-02  4.9898590072852439e-02  2.6880701661992541e-02  4.1977169753519859e-02  5.5030512902320194e-02  3.5060905539692148e-02  3.2806545911484131e-02  4.5320992211264954e-02  3.7443019026720044e-02  7.6408889206998976e-01  4.7537643542834518e-02  4.9550375343653516e-02  5.0916714040082758e-02  4.3949757075490779e-02  5.9541069246592110e-02  4.8155059513293588e-02  3.5325990801395458e-02  5.3636289192579338e-02  4.0559818222316982e-02  5.3795961262873691e-02  4.8884206095713791e-02  4.0790300354500618e-02  4.0172828124335612e-02  4.8115878524930093e-03  4.9910650621946648e-02  4.6759362879661433e-02  4.9124308479324176e-02  5.4369852924803480e-02  4.4249324306814580e-02  4.8778983134760853e-02  4.4747024156765680e-02  4.3397873538611742e-02  4.4652504526078197e-02  3.8566138691817665e-02  4.3345989222498292e-02  4.1413378436138841e-02  7.7243328911928788e-01  3.5806235890822539e-02  7.6647123052406818e-01  4.1985516838797400e-02  5.6254818804162193e-02  7.6734784210506646e-01  8.5906731572346329e-01  8.5667016391247230e-01  7.7392650103457239e-01  3.8494212538331636e-02  3.6089722230930051e-02  3.9019159912575957e-02  3.3344373669887760e-02  4.7562158456855644e-02  4.1072895096697398e-02  5.0149210314566588e-02  4.3539300506644667e-02  4.7762335621443448e-02  3.8636001150196650e-02  8.0021919582363799e-01  7.9972001289290373e-01  5.9424042993650110e-02  4.4164234487288991e-02  4.0322369154457818e-02  7.8817604885476933e-01  5.1627024884194100e-02  4.2015955019009052e-02  4.1991634248675538e-02  4.5795174784886983e-02  5.3593540945079399e-02  5.5517031444360182e-02  5.7134140398820144e-02  4.4405393192039469e-02  5.0403098282053034e-02  4.4966080654142211e-02  4.3242528394435584e-02  4.6125663594060277e-02  4.4043620172708395e-02  3.3727097439583929e-02  4.2524540768049977e-02  3.6563084950394793e-02  6.1537894553632941e-02  4.8910522848353746e-02  3.3832629572127473e-02  5.2196646526308489e-02  5.0395541465428538e-02  6.0429091304402140e-02  5.0931141085718307e-02  4.3060846256695290e-02  4.1577966945237382e-02  4.4100665533473658e-02  5.7877502419564242e-02  5.0135714715174168e-02  3.7064551340414295e-02  5.7810961158364302e-02  7.5333617274092246e-01  4.8817231143947641e-02  3.5820330786217901e-02  6.4507150523099868e-02  4.3694002781262807e-02  4.1614789397265511e-02  7.5154522582167449e-01  4.8538181860761587e-02  3.9592726011006579e-02  7.8856755019167468e-01  4.6847317005325573e-02  7.4258211215426362e-01  7.8940523203813862e-01  8.0911695576244325e-01  3.3933619164270755e-02  5.1891443803612894e-02  5.8466482699066187e-02  6.5520279749546231e-02  4.7738004941934080e-02  5.3731621649539596e-02  7.8252851913853461e-01  4.9103112190536258e-02  5.1707249105389257e-02  4.6436414600324459e-02  5.3708940234503545e-02  5.9264109608393581e-02  3.6128373014235791e-02  3.3894735872105057e-02  5.7576874570760030e-02  4.1815370640092248e-02  5.4502687244238082e-02  4.3455203349389050e-02  4.3108759633671154e-02  4.0667675887775159e-02  8.0087821527372227e-01  5.7116073384844743e-02  7.4103501222161627e-01  4.9001867325477934e-02  4.2681286016024805e-02  3.3103677271239418e-02  3.8717463197414960e-02  4.5063207025622151e-02  7.9227761212039033e-02  4.9505418032500838e-02  3.9206334962126339e-02  5.9124807475484993e-02  5.7533786920087975e-02  4.2819923899021894e-02  4.3306104072015232e-02  4.3042222901205705e-02  3.8833843153334560e-02  4.0224708392084439e-02  8.0267358124216526e-01  6.1628587566094996e-02  7.5628947951547565e-01  4.6918917200132200e-02  3.2827840490696335e-02  4.9688695855815999e-02  3.9753281910487256e-02  4.2089751051667089e-02  5.3306076656709896e-02  4.6582777034911670e-02  3.3249227509813073e-02  4.5351869540902631e-02  3.8642677627925441e-02  4.1398665779410745e-02  3.8804821487916280e-02  4.7779864673534261e-02  8.2033981936495814e-01  3.5755898892253606e-02  4.9224247319547734e-02  3.9462251960214675e-02  7.7657305056956796e-02  4.8903544305490716e-02  8.3716020012049724e-02  7.0293209396854420e-02  4.7186246074217758e-02  7.5497421828878819e-01  5.0945650312456257e-02  3.8524361534525535e-02  5.5238440504866322e-02  5.8320430914112452e-02  4.4584227009145452e-02  5.0339847398375791e-02  4.5911588445478817e-02  4.0713612926799571e-02  8.1115472761034824e-01  3.9987407936100040e-02  4.5569739305223893e-02  5.0592790091577029e-02  4.9721851721565326e-02  3.7572132362393713e-02  4.6672693701856290e-02  4.5546219275519204e-02  4.4506660810372162e-02  3.8997151993070030e-02  4.1462763650725522e-02  4.8634489480067059e-02  4.2411271028948060e-02  4.9887786095211849e-02  3.3220006758324962e-02  4.0931851673740013e-02  4.0491079286312563e-02  7.4083579464793492e-01  4.2406966823260520e-02  4.3243211269400526e-02  7.7097821359279362e-01  4.2878880852680885e-02  5.0096838806189876e-02  4.8129056789264255e-02  4.4014784636509152e-02  3.7534940465496477e-02  7.9541097076299161e-01  5.1446803128146472e-02  5.1183315634081371e-02  1.5614068088383512e-02  4.2071594888876788e-02  4.8312912862750711e-02  4.0676489916797162e-02  7.9492286667498813e-01  5.3110839255051348e-02  3.1520922369394584e-02  4.6027025632466065e-02  4.7867404112990508e-02  7.7816396859683418e-02  9.6299080357083178e-02  3.9666411932186910e-02  5.8539887435131166e-02  7.7933263092329341e-01  4.9627079861013813e-02  4.8334706315414415e-02  5.2248509973438655e-02  5.0445551396949194e-02  4.0436982775593072e-02  4.1874772072022046e-02  4.8476845976186220e-02  3.9613874939015359e-02  5.0528332232258104e-02  4.2346933570718184e-02  3.4095229588083434e-02  4.2827344634692302e-02  3.4123889226162996e-02  7.6889269698176888e-01  3.9102456596029872e-02  5.0646055383506867e-02  4.5767632996839676e-02  7.7507312320099497e-02  3.9730791859407665e-02  5.3127535370119772e-02  3.0379775478711547e-02  3.7925487970458395e-02  5.0087760769563068e-02  4.9706503324236963e-02  3.4772692571337444e-02  7.8101283672243071e-01  4.2427794039110608e-02  7.4357684045176661e-02  5.0306385715857341e-02  4.8482123772182348e-02  4.0363940889707045e-02  4.0863501438054631e-02  3.8534498696034654e-02  3.9237266674406371e-02  5.3106585573572965e-02  3.7952329339054250e-02  3.9650461956256884e-02  3.2071364716026798e-02  3.8002178571950387e-02  3.5843133544270968e-02  5.0395288625393581e-02  4.9250548895842509e-02  4.7218805715103507e-02  4.0233022317424087e-02  4.0254805414174109e-02  3.8878027787156634e-02  4.0705062981897341e-02  4.7026620403535981e-02  3.5833767522908663e-02  5.6967056217763580e-02  4.8387521196662911e-02  7.7508461220760105e-02  8.4821628686927786e-01  3.4914225426770931e-02  4.9674577483450930e-02  4.0920388423707911e-02  4.7047965421837701e-02  3.3549739544537299e-02  4.4920335434241940e-02  4.1085666017722573e-02  3.8413653270454373e-02  3.7640137368739515e-02  4.5832447342986228e-02  5.7710470595871671e-02  4.0923297654060241e-02  6.7646784615333641e-03  7.9034017806947499e-01  4.1152924716722231e-02  4.1723867868260461e-02  7.0953417912916913e-02  5.0157313864347131e-02  5.5706546406486333e-02  9.9862260993567875e-02  4.3534460781293624e-02  1.2951034406806178e-01  3.8257062260721238e-02  3.8127938588128144e-02  4.2012817733681720e-02  3.4383767984871777e-02  4.7515369670502884e-02  9.8022680048668542e-02  5.6368678288716979e-02  5.0217720914671082e-02  3.0714812111836496e-02  3.9402039417131586e-02  3.8710130857600986e-02  4.9439977342160497e-02  4.9712148986376714e-02  4.0120277209434993e-02  5.9060177659379168e-02  7.1222581644588490e-01  7.1824736151789814e-01  4.6058518987004526e-02  1.1252964329784348e-01  7.9529613364934382e-01  4.8842173430013187e-02  4.2023710293510014e-02  5.7057393358151624e-02  3.1496819010718921e-02  3.5418803420500237e-02  5.5015063132714453e-02  3.0325483752538282e-02  3.5875735262259713e-02  4.7953978346730604e-02  9.5053857055650601e-02  1.9736144860546551e-02  8.9481337685682324e-02  4.0363144218552742e-02  5.0025852791918186e-02  4.9871332212053039e-02  4.9214849993617069e-02  3.9514204768345877e-02  4.6273537201024832e-02  9.5647249926482769e-02  4.2844162942752166e-02  4.4826970521550151e-02  4.2889734807177594e-02  4.1267679355358168e-02  4.6068426486533656e-02  5.3771270410891650e-02  5.1456453281181203e-02  4.3555909165042705e-02  4.0892786698736028e-02  3.4563460624030401e-02  4.8188379709454630e-02  3.2248139029895796e-02  4.8913788583584590e-02  4.5390727221147287e-02  -1.6874923758298454e-03  7.1847923507358458e-01  7.2523603808973980e-01  4.9445895476136890e-02  3.0185379554783474e-02  4.5798895116729389e-02  5.3370674620232497e-02  4.1856411577540796e-02  5.7502050501304955e-02  4.5444475318955818e-02  6.9070890801226248e-01  5.9180583140684515e-02  5.5873188626035755e-02  4.1070372384094819e-02  7.1201866596661112e-01  3.9772526210756796e-02  4.4810228897659114e-02  4.2673837529580691e-02  4.7303461503973902e-02  5.4732576223404404e-02  5.5701324408479171e-02  1.1976470326483250e-01  3.1864413341614967e-02  4.8128014377097683e-02  4.0341410854339149e-02  3.9594675205736431e-02  3.6563630801395117e-02  7.7595383614655788e-01  5.5531230656053435e-02  4.8326944930106412e-02  4.2632555541028926e-02  4.2501387063207170e-02  1.1976709508237174e-01  3.5051250298037170e-02  7.8566020995295971e-01  5.7161975445582977e-02  3.7796744627287125e-02  3.9436928009733987e-02  3.9764307778126534e-02  4.6727271230751113e-02  4.4457094161380557e-02  4.8262608093986407e-02  4.5337655276345312e-02  3.9500446610129594e-02  3.9132919943387814e-02  4.3272798130124947e-02  4.6437292888149517e-02  4.6716099225898290e-02  4.1431449052597227e-02  4.9449891495496695e-02  4.4752894645548887e-02  4.8410491684259177e-02  8.4274721584912060e-01  6.8849462980143916e-01  8.3392972343746441e-01  5.3016688166427128e-02  1.1832679931856548e-01  3.6699090737656814e-02  5.9011207831128822e-02  3.2036702806350854e-02  6.9037963929518709e-01  4.7506661073091316e-02  3.7900464107206537e-02  3.6811204810901339e-02  4.0730833300444080e-02  4.4129477538806298e-02  3.0971487190299376e-02  4.3646765930018740e-02  3.8615701256547785e-02  4.8160812825143645e-02  4.6460959310102315e-02  4.9341407675680030e-02  5.0021034507882083e-02  3.4491512672794829e-02  5.5834989590347918e-02  4.0001024939897614e-02  7.0706296445378369e-01  7.7455209248259738e-01  3.0367113071536129e-02  3.7636914759206080e-02  3.7319200702950799e-02  7.7681199990281602e-01  7.4498649249898824e-02  4.8381850141704076e-02  4.4392857965884373e-02  3.3534237155187836e-02  4.0110624772154879e-02  4.9064345612814801e-02  3.9299933147331878e-02  8.0711333383787975e-01  6.7867424761052630e-01  4.6880450283039193e-02  5.1645388136632595e-02  3.0760031147914906e-02  4.3572500536273921e-02  3.7723343295172344e-02  8.2833289698706369e-01  3.8304150193390250e-02  3.8463572828264042e-02  4.6029582824291398e-02  8.3149298452388909e-01  5.4579458656838796e-02  8.4677324043949120e-01  4.1488558346293773e-02  4.9199662112048480e-02  4.7622423862171109e-02  4.8837627711693046e-02  7.6889928994775503e-01  3.7574146110467957e-02  4.5462215931160226e-02  3.8614342324774738e-02  4.5729873912100913e-02  4.6131160713324862e-02  5.7577394592928342e-02  5.8821555087270112e-02  7.7238865845352822e-01  4.4174198731487285e-02  4.0613229174567549e-02  7.7062403527661050e-01  5.6887839748674153e-02  5.1521000323318737e-02  5.3840120968954464e-02  4.3982571968138429e-02  5.6817029583563654e-02  4.0379704443485175e-02  4.0070473489131953e-02  3.4620396617957717e-02  4.7431676401860023e-02  5.0086061510489319e-02  7.8600926694262829e-01  3.3343737417464742e-02  4.0821235981257378e-02  4.6767674834610369e-02  8.3633090256750364e-01  3.7050181354229238e-02  4.5726828535336696e-02  4.6780118247738506e-02  4.9926786701792347e-02  5.5766119854424423e-02  4.4214912475885229e-02  3.7142503507147880e-02  4.9845598912743219e-02  3.9625371918724200e-02  4.9105507620001779e-02  8.3481279417911658e-01  5.0376481832441408e-02  7.9098423457251488e-01  3.0873493118665322e-02  4.6322466123908682e-02  4.8961316816852937e-02  4.4328326875919019e-02  3.2518322139661687e-02  4.8432929129274722e-02  5.5424792498054730e-02  1.0356749074212547e-01  4.8330164884559212e-02  4.0113395078144126e-02  4.8324958495736259e-02  3.3236240964645690e-02  4.8776078453068507e-02  3.8195320815233767e-02  4.2530177768961931e-02  3.2220530127318035e-02  5.7646417618849269e-02  5.4529794112474175e-02  5.3417799325849759e-02  5.5762770926910385e-02  5.5294621269592378e-02  3.9521681901020102e-02  4.6100696254495303e-02  7.9648288091948949e-01  7.9169780122022049e-01  4.5647082117210323e-02  3.9660497073453295e-02  4.0672777998471202e-02  9.9117339758667281e-02  4.3327478908586251e-02  4.4259284322422057e-02  3.7179279087372410e-02  4.7378186078033825e-02  3.6885822685558317e-02  3.9722855971866304e-02  4.3407187724203392e-02  3.8114796956463998e-02  3.6970271832128518e-02  4.6748688515951972e-02  3.9741668212369380e-02  4.1177857458936498e-02  3.4687916216088861e-02  5.6450548003545216e-02  4.0679944858996162e-02  5.9556004560605037e-02  5.4676277750490887e-02  5.6297760465995939e-02  8.4470892959025989e-02  3.8818536196975693e-02  7.9287154407287630e-01  7.9858491710100610e-01  7.9616561166087996e-01  8.0377319480357046e-01  4.2413804279327193e-02  4.4359604113499956e-02  4.0952618216668624e-02  5.7838665282259505e-02  3.7728437921315999e-02  7.8215451824121529e-01  4.3208627927602009e-02  4.7032430016843908e-02  4.1818231419159545e-02  4.4303631608961794e-02  4.2644720011336464e-02  4.1597187856411172e-02  6.7247221736643303e-01  3.9877880208688168e-02  3.9781947658476750e-02  4.4889543402351191e-02  4.8130635461035402e-02  4.1554720649311518e-02  7.7830583462036718e-01  3.6503718658585239e-02  3.9257315494488104e-02  3.6118508561266374e-02  4.8655417820910520e-02  5.1371941668049016e-02  2.9928730148005095e-02  4.9342922336465540e-02  5.0392406315010359e-02  4.8646952839910794e-02  4.0683154808209873e-02  3.3154690930508282e-02  9.2787519347717382e-02  2.8410738923179434e-02  3.4392876367633128e-02  4.1821939132530066e-02  4.7932889847236766e-02  4.7052251529693695e-02  8