<?xml version="1.0"?>
<VTKFile type="UnstructuredGrid"  version="0.1"  >
<UnstructuredGrid>
<Piece  NumberOfPoints="821" NumberOfCells="1550">
<Points>
<DataArray  type="Float64"  NumberOfComponents="3"  format="ascii">-0.9521775645006411 -0.01090070708183763 0  -0.950248013950413 -0.1172840656605843 0  -0.9360401225057348 -0.2232919514343199 0  -0.9095387411033538 -0.3268118861732051 0  -0.871736090556732 -0.4253967097496881 0  -0.8235182494274514 -0.5179722944643065 0  -0.7672840013464378 -0.6019380681590205 0  -0.7057040601609345 -0.6759058932650381 0  -0.638114557166135 -0.7418761193781553 0  -0.5651894647909521 -0.8001332713962601 0  -0.4878951999918839 -0.8503997643071517 0  -0.4061579823262538 -0.8931849196989546 0  -0.3204620450913127 -0.9279619049133291 0  -0.2335754593972902 -0.9538941711163724 0  -0.1433245436257199 -0.9719005494446197 0  -0.05166307004332036 -0.9812739700294378 0  0.04038766287516341 -0.9819144690350892 0  0.1318831998799871 -0.9736902250170592 0  0.2228095140202287 -0.9567687175540996 0  0.3112046153017275 -0.931369910593625 0  0.3964141586298118 -0.8978620101747432 0  0.4788538135323904 -0.8559747051760385 0  0.5566368822597506 -0.8065612829863928 0  0.6294704504370769 -0.7497625377439978 0  0.6977847715626855 -0.684782842068 0  0.7604087780447499 -0.6114574423101685 0  0.8177389725861391 -0.5281883254346201 0  0.8664715211533405 -0.4376151144048269 0  0.9058999533242188 -0.3389698217048262 0  0.9337708220804957 -0.2358288845670908 0  0.9494334790235361 -0.1305477626038834 0  0.9527444606275201 -0.02348466683681706 0  0.9436581787983309 0.0833183820486378 0  0.9222092593818048 0.1884831876378369 0  0.8890490506111651 0.2898019106763116 0  0.8442564287820301 0.3872325836786583 0  0.788013510863931 0.4796474853349622 0  0.7220392340975537 0.5643491893556822 0  0.6465786271966555 0.6412849388787573 0  0.5630800358213999 0.709144826954842 0  0.4720301871898556 0.7674447353814087 0  0.3756916181040483 0.8146261586595053 0  0.2738368380322612 0.8513274984962821 0  0.1680987915899165 0.8763921253204304 0  0.06082103413367254 0.8892655056597418 0  -0.04712200874305218 0.8899116707677066 0  -0.1557552347983054 0.878436120811859 0  -0.260957472442266 0.8550736796479632 0  -0.3628793270577681 0.8200909380694504 0  -0.4605777129647726 0.7737573317036361 0  -0.5526124567153894 0.7164790526854098 0  -0.6365583537856385 0.6501523327683086 0  -0.712846024090657 0.57463629679211 0  -0.7805397877955713 0.4902020531163082 0  -0.837928479031828 0.3988524981002894 0  -0.8838769007376552 0.3027667597396265 0  -0.9190763268884241 0.2001458206895482 0  -0.9417865808357072 0.09558618643191494 0  -1.947761004452521 0.09725172649280957 0  -1.947761725101151 -0.09725779431307244 0  -1.92843942231812 -0.2903321732906319 0  -1.889828089424455 -0.4812054699739264 0  -1.832521295964415 -0.6669918760874344 0  -1.756903234505827 -0.8464436254396844 0  -1.664074118135504 -1.0168942893205 0  -1.554742244347436 -1.177269168136013 0  -1.429363939431424 -1.326691099448147 0  -1.290408665074304 -1.462214973222845 0  -1.138667938518461 -1.583233551328853 0  -0.9750674288564692 -1.688868089530918 0  -0.8017846313416266 -1.777733075347306 0  -0.6211476278421956 -1.848626081273885 0  -0.4339543294565595 -1.901298926107629 0  -0.2424931232909564 -1.935058459931324 0  -0.04862530897315798 -1.949587612387506 0  0.1457804459264043 -1.944732746563653 0  0.3383200937496127 -1.920606832439034 0  0.5281825045670302 -1.877258333146908 0  0.7127862256187421 -1.815248598668556 0  0.8896614775427802 -1.735437541252098 0  1.058068881115178 -1.638213851415024 0  1.215954758778585 -1.524696320197686 0  1.361449446497748 -1.396295454923053 0  1.493886045907027 -1.253530366001536 0  1.611282865658228 -1.098558480725014 0  1.712646625367176 -0.9326588764024454 0  1.796999597225587 -0.7574985837157847 0  1.863494494126658 -0.5748067964499791 0  1.911572192391001 -0.3861047167716674 0  1.940492284811837 -0.1941780545895334 0  1.950175437551781 -0.0003275276333301369 0  1.940453432720215 0.194168132952356 0  1.911446996202377 0.3867337598430444 0  1.863546235304357 0.5748242626791097 0  1.797167898629218 0.7572210945898767 0  1.712536313289327 0.9329605577107607 0  1.6113235222953 1.098578026837177 0  1.494131812892815 1.253304688425672 0  1.361412144788908 1.396334509729851 0  1.216212301611163 1.524466421082918 0  1.057789411362635 1.638378073134606 0  0.8897380678111244 1.735404029783734 0  0.7124826898033898 1.815390340224068 0  0.5281954588944607 1.877305957084504 0  0.3386094548517771 1.920572622056027 0  0.1460672946591564 1.944704047189136 0  -0.0486138087567661 1.949535545116989 0  -0.242494557196556 1.935017437084428 0  -0.4343337960073562 1.901196972124817 0  -0.620738388295613 1.848750181297705 0  -0.8020775563723451 1.777572075432124 0  -0.9753747721549806 1.688742564093496 0  -1.138411407984546 1.583434621310208 0  -1.290166414376326 1.462421537394069 0  -1.429553925048078 1.326430714550279 0  -1.554751770166101 1.177261796190866 0  -1.664060251436891 1.016928708538636 0  -1.757065825989067 0.8461562122864915 0  -1.832593525200442 0.6669618555746041 0  -1.889789991263221 0.4815356248827132 0  -1.928442166978104 0.2903311645816147 0  0.001088295170571124 -0.002266816970611282 0  0.1766839510078543 1.408185494608744 0  -0.3913300799378129 1.367265711035365 0  0.6900197302716155 1.244024479406849 0  -0.9053967118851205 1.102546907907183 0  1.148434022171022 0.8562765514574315 0  -1.27576507420742 0.6678943934880773 0  1.384605849207367 0.4014262690450071 0  -1.445775835849484 0.1167791892245172 0  1.452287485680602 -0.1001183486620463 0  -1.388938455079945 -0.4543010392840223 0  1.310191828031872 -0.6556916779003472 0  -0.4857323158790589 -0.06513251661805614 0  0.4862158366720416 -0.07085026125146819 0  -1.164635600788023 -0.8934704142012341 0  -0.2580782116144901 0.3738525890721171 0  -0.2052803007738385 -0.4266581816937441 0  0.2804272169959229 0.359388078063808 0  0.9499265382137437 -1.130150942430235 0  -0.7918897476779094 -1.252517083752828 0  0.4634649037452398 -1.408205393295304 0  -0.3022000015191071 -1.446574946906107 0  0.2335574699127288 -0.4332324585616823 0  0.0786157149690173 -1.402214239802169 0  -0.1222946640335822 1.605613160179356 0  -0.7424400791130346 1.427521742917587 0  -1.244995307548205 1.027459988569781 0  1.079822783884464 1.205690946050251 0  -1.547978337630463 0.4610349055179182 0  0.5242220295895827 1.543566926445961 0  -1.606978398730196 -0.1761744858298719 0  1.273655321223863 -0.9897438044765218 0  1.56511079362748 -0.4155463404733128 0  0.01720702104178369 0.5759622515753705 0  -0.5748363383349332 0.2332875759359484 0  0.7994403846063389 -1.418607198075188 0  1.020394590183872 -0.7965026734620119 0  0.6324906162881998 -1.14653218523014 0  -0.5096420644418737 -0.3982871034040332 0  1.620561273409475 0.1907125737851896 0  0.5872209614244281 0.2173184111636163 0  1.498029799092249 0.7040881024280699 0  0.8196384962067248 0.9225714652086411 0  -0.5727407904573992 1.079279448472385 0  -0.0948401030129831 1.210116046313615 0  -1.152828923964269 -1.192914897090559 0  -0.5994937053605338 -1.54350605735012 0  -0.002868146851861575 -0.6508987877391555 0  1.233912934765554 -0.3574057157244939 0  -0.9674314285529023 0.7699363601256645 0  -1.264448100367197 -0.1696484385481022 0  0.5631211079346383 -0.3694902233299541 0  -1.455094473849516 -0.7514050420646614 0  0.3792493244508663 1.148892734278729 0  -1.213313065401327 0.3345117626651021 0  0.207172114501717 -1.667421044391914 0  -0.1238939757378998 -1.672531770703861 0  1.110777544957695 0.5363070650848741 0  1.229139465933293 0.074982254041778 0  0.9006573465322355 1.418578837223196 0  0.2123813958029286 1.681521275727276 0  -0.4829045516844181 -1.212460126420881 0  -0.3910186160262152 1.638825040303257 0  -1.116548819264728 -0.6122039473735793 0  -0.8151419929686036 -0.979761913433429 0  -1.065896937942291 1.322665793310302 0  1.394589428490032 0.9519337572622011 0  0.009925714090222583 0.3299942962907657 0  -1.528587078433809 0.7265603656749138 0  1.627433601683654 0.4872301874794268 0  -1.69554760308158 0.06771542270627239 0  -1.191746976065485 0.06587736054379474 0  -0.1237998927582407 -1.248850026902241 0  1.68806927919897 -0.1905332929858043 0  0.279297897276149 0.5971600260425324 0  0.231937941229596 -0.157969344098873 0  0.2610247941898503 0.1020051971393639 0  -0.008007280480192627 -0.2564133163784381 0  -0.2346376453221325 -0.1290954131291594 0  -0.2306022829142841 0.125567599498652 0  -1.049308351108931 0.5240260491228368 0  -0.7119862678603948 0.008669530046503598 0  0.7222791734029418 -0.0527886682660406 0  -0.7367828726869713 0.8780850195124154 0  -1.639096720299299 -0.5163912930189073 0  -0.4863722245604215 0.4686494158953158 0  -0.242917428788619 0.6126253398379244 0  1.070128754834666 -0.5647769149426426 0  1.546591253829327 -0.7539226496816278 0  -0.3792843522224089 -0.6042106299283426 0  0.5756868158599486 0.9857743744875771 0  -0.319546092418715 1.089620993337332 0  0.5067729331867089 0.453773573795543 0  1.190927973358766 -1.21933823756431 0  -1.350390322328594 -1.052941951691782 0  -0.940435438795848 -0.7778739272314353 0  0.2624381899325327 -1.230062361665627 0  0.3955906205261107 -0.6103712854320907 0  0.8159958706478772 -0.925636444712691 0  -0.6824083254273638 -0.2403746555519799 0  0.9528715289354708 0.7179990313659287 0  -0.9335143670823081 -1.454747972205077 0  -1.152789707315667 -0.3868541464221635 0  0.6340141262524273 -1.589539909196094 0  1.132628877734637 0.2912933728168649 0  0.1339331156373409 1.113999671510882 0  -0.3568325236682613 -1.681247833368848 0  0.2008209756655138 -0.6635656087088577 0  1.170317350060571 -0.150595245632821 0  1.007074739132374 -1.341625150086676 0  0.4189518330585854 -1.623733937527174 0  -0.6186870781512979 1.622773553061438 0  -1.720902663096234 0.3356477976258688 0  -1.454779762865824 0.980025155491569 0  1.296550927059787 1.158161924517523 0  -0.6098191247858065 -1.050546859391333 0  1.311311
[...]
<PointData  Scalars="f_929-1"> 
<DataArray  type="Float64"  Name="f_929-1"  format="ascii">3.9197551539975301e-01  3.8504988157328823e-01  3.9202183703167470e-01  3.8919097217428111e-01  4.0680121196595070e-01  4.1694836963992982e-01  4.4361400595232570e-01  4.9692256485596342e-01  4.8825312961311246e-01  5.0746424282189440e-01  4.8921250664927057e-01  5.0323239617785043e-01  5.1001149403476420e-01  4.9123651027491422e-01  4.9849869796728474e-01  5.1632067977256102e-01  5.0898639499130993e-01  4.9676339548084425e-01  5.1806532366605185e-01  4.9355175459571482e-01  4.9117563754243587e-01  5.1437184614120968e-01  4.9317796747334081e-01  4.6931692502253741e-01  5.0131870504069853e-01  4.5786777537677181e-01  4.0486541248559449e-01  3.8878030335775582e-01  4.0023979264855764e-01  3.9837876973316960e-01  3.9154256350422578e-01  4.0594420390141267e-01  4.0792552807068433e-01  4.0348402507076520e-01  4.0070819762960264e-01  4.2442655453371442e-01  4.0319846937077780e-01  4.2136851499922573e-01  4.1891108309695885e-01  4.0860095593327089e-01  4.2799318947030562e-01  4.2107571410557332e-01  4.3844735623455522e-01  4.1811747239762742e-01  4.3470254703662603e-01  4.2933593393323843e-01  4.2850763741729775e-01  4.2880336268057384e-01  4.1497614985414411e-01  4.2524384481200894e-01  4.2067170757859573e-01  4.1428556956268142e-01  4.2969531460648780e-01  4.1500394393972384e-01  3.9867412758771770e-01  4.0751577232512298e-01  4.0586909524735743e-01  4.0328867505628269e-01  -1.2591001309515270e-02  -7.9698988617788510e-03  -2.7826164746465279e-02  -9.6706806871732387e-02  -9.2294585050019112e-02  -2.8514248481161901e-02  -1.3971498075822588e-02  -1.2276157818339913e-02  -3.1293005919964122e-03  4.4019573138853246e-03  2.8709590013941333e-03  -5.8387704866858472e-02  1.1197833096119074e-02  1.6097173195890060e-02  1.4893730964785135e-02  2.2357641683788985e-02  1.4593982787021422e-02  9.6242217845020003e-03  1.0386910831242211e-02  -1.6708290941613950e-03  7.2160820741541390e-03  1.3712416912925879e-02  1.1041341278431730e-02  1.4686933031672398e-02  -6.8953671323966591e-03  -6.5108012907808210e-02  -2.9112783288564856e-02  -9.3321909756522450e-02  -9.3371306782829330e-02  -9.1408747258443251e-02  -1.4890293711407104e-02  -1.7604178468650294e-02  -1.7529307566640270e-02  -3.0087369276501411e-02  -2.2631580207325089e-03  1.1861137629137872e-03  3.4184043786610759e-03  2.9490840869419053e-03  1.6450042530909825e-02  1.4353435107173915e-02  2.1650936636942487e-02  -5.3626703498742519e-03  2.2159268231966307e-02  3.5562048049362020e-02  4.2315762899383984e-02  3.4452627037366575e-02  3.6018257398467278e-02  3.2597972049923853e-02  -3.0080942366331822e-02  2.4692828709470729e-02  3.1978110888464181e-02  2.8071940883701754e-02  1.8329074271625057e-02  2.3074547815761171e-02  3.2431461358899315e-02  1.9151284789171674e-02  -4.6318276286102696e-02  1.1767186640297149e-02  9.4989060042088066e-03  1.2599546493923345e-02  3.7953995115299470e-03  -1.0834263214955437e-02  -1.2566829500774078e-02  9.3295094966792280e-01  8.5604842706803824e-02  8.3277453631030618e-02  7.9131151551631834e-02  7.3573399604662110e-02  6.5137643741775650e-02  5.8033738130145583e-02  4.7628920812087604e-02  3.8175073779840855e-02  3.2653406387407928e-02  2.8691828020572407e-02  3.2601483114122511e-02  9.2121955586099491e-01  9.2067118661258585e-01  4.4579717887462934e-02  8.9660025341641991e-01  9.8868108948410383e-01  8.9741111739454638e-01  5.7361979102736264e-02  6.1868187012878974e-02  6.5363113059742767e-02  6.3462773551170915e-02  9.9067808694028903e-01  6.8141145327625496e-02  8.3932417606123910e-02  7.8103800504785048e-02  6.5231462174978327e-02  7.0539705597789340e-02  4.6827319238254790e-02  8.1167414710990315e-02  3.0204187980402770e-02  4.1929629836514784e-02  2.8244804079078416e-02  8.8316864820946006e-01  8.9190013138281943e-01  5.9609847819441335e-02  4.8201278075591589e-02  7.5538725056247660e-02  9.6559090088721766e-01  3.8519128164592430e-02  8.8896901200387279e-01  5.3401829591500492e-02  6.7450959795320897e-02  7.9249775182227616e-02  8.3894537948717832e-02  4.9197559698037616e-02  6.0708295181138718e-02  1.0249012411895781e+00  2.4431768030806721e-02  7.0343558437177406e-02  2.9758247515439290e-02  9.4480055686015030e-01  3.2126527069591203e-02  8.7367296336839248e-02  5.0659437990051577e-02  6.0915948051197384e-02  6.1235324687175408e-02  6.3570433199345480e-02  4.0991327844340862e-02  7.4038652364645588e-02  8.1630193011836147e-02  6.6236010878299861e-02  8.0450278586108065e-02  2.9984714025398099e-02  7.3936634330779530e-02  7.0023870413446737e-02  5.9404367125345504e-02  9.0309933672820564e-01  5.1809589088593913e-02  4.4752445158810987e-02  3.2553912353152574e-02  4.2281038153347071e-02  8.0766887999908304e-02  2.7659746281693535e-02  8.6233431897008028e-01  9.4760430088009540e-01  9.1792689748838385e-01  9.6518932220815967e-01  9.4389159546529078e-01  9.1690383544078291e-01  6.7750584350331086e-02  8.7221910499429900e-01  8.7318076780692433e-01  7.9942784663498662e-02  2.5209405627675215e-02  8.5964694249299367e-01  8.5115729847760080e-01  3.7571829339788608e-02  2.8309089733446653e-02  1.0099872411129400e+00  9.1368236846389936e-02  1.0149813693436829e-01  8.5354335340474619e-01  4.6358860981544882e-02  3.9297137126186425e-02  5.6443676947552500e-02  8.1912152531467580e-02  1.0026171734403924e+00  7.5938987588548959e-02  8.8954743136407832e-01  7.3747021959112577e-02  5.4578195910676988e-02  3.4317395190552727e-02  5.8428067967681664e-02  5.1661468423186967e-02  9.3369482818802529e-02  5.9264344694897955e-02  1.0238323655093760e+00  4.4782888513259518e-02  5.3447527119168482e-02  6.0462672495341319e-02  7.7056867088315426e-02  3.7562327994684230e-02  5.6864823259021306e-02  6.2661747503054213e-02  8.7531936747697422e-02  5.6194889962605812e-02  7.5046985956013820e-02  8.3047611987929842e-02  1.0104743204613240e+00  4.0854299568860587e-02  8.5366500942602452e-02  3.0358001890028762e-02  7.1063337282780928e-02  6.6068594695683464e-02  6.6612951780098378e-02  9.4481568905047886e-02  7.5338689291061148e-02  9.6159269651369161e-01  9.9366858182943751e-01  7.8272029244669541e-02  5.6862452324636374e-02  5.8213835988026534e-02  7.0310474754740851e-02  9.6272806769088537e-01  7.3108070368334735e-02  7.6835258949105673e-02  7.7385795824917350e-02  6.4565464216888607e-02  6.4580801226425677e-02  7.1431471839050950e-02  8.4408346144597815e-02  9.0511586422855816e-01  9.0375791285351992e-01  6.4359260159742165e-02  8.3059989460352390e-01  8.0880164158056975e-02  6.8955807059384783e-02  8.1300399457315306e-02  2.1204675299593922e-02  2.3875554137446992e-02  3.1583653773932671e-02  1.8676768615925297e-02  5.1995668721792572e-02  6.4307038976684619e-02  7.5509925742141812e-02  7.2105721430248904e-02  9.0246887162941114e-01  5.3760915508510136e-02  4.7864518628170913e-02  8.0796663270226354e-01  7.9141178811601473e-02  8.4968189986847339e-02  9.1631620198859021e-01  8.5754027511713765e-02  8.1299786546472985e-01  3.4790157976992579e-02  4.5031437807360249e-02  5.0854552635910572e-02  8.3430067514132156e-01  8.1934658741510336e-01  7.0344110658879300e-02  5.8793309152421529e-02  4.0985818703712297e-02  5.9496437808149678e-02  6.4974122051866687e-02  2.9768438165560251e-02  3.8282226774802898e-02  3.9474330263098108e-02  3.0261993627379552e-02  6.3374704304064014e-02  5.3223393702142907e-02  2.8888738136436325e-02  2.4688830729650391e-02  2.9018951133153194e-02  3.4151160392308415e-02  1.4766460629084327e-01  3.5180977740604948e-02  9.7191934497264842e-01  8.8144192985409753e-01  1.3170174302718324e-01  2.5760141997501641e-02  8.0501483676923924e-01  1.3513043516227541e-01  2.1737782213409551e-02  1.5215567662917984e-01  6.6582104236228359e-02  1.2936580817232493e-01  1.4079952290241546e-01  1.1843845665350267e-01  8.6469936541378550e-02  4.1058298102709626e-02  5.2101096514949728e-02  8.9458380680820881e-01  8.9247886666146803e-01  7.5422144693077342e-02  3.8040097296152868e-02  1.2011247325162197e-01  7.4549578615366638e-02  8.0196911617549924e-02  6.0410552084109802e-02  6.3030822452465857e-02  9.3306885391657224e-01  2.7331221138834363e-02  7.6576857605014856e-02  8.8730893740827516e-02  9.0308527201796129e-01  9.8890032741904210e-01  5.2837341430130129e-02  6.7244234675742962e-02  7.8232924890859271e-02  8.1168657575854009e-01  5.6736614909732364e-02  5.6092419204469550e-02  3.3070310948854348e-02  8.9998477805466204e-01  9.7265926597434371e-01  3.1341882317437945e-02  3.5298897339104920e-02  4.3934897252518160e-02  8.4911497306872627e-02  8.1825107994990334e-02  1.3400922155514350e-01  2.8048029451366790e-02  4.5605060800606792e-02  6.2620889712318828e-02  3.4918137139981861e-02  7.9712221581450315e-01  6.5259195891120461e-02  1.2732910770431038e-01  1.3742593875622414e-01  7.5530548445083098e-02  7.1745323517439577e-02  3.1805656233522890e-02  9.9114327664610494e-02  8.4049772675235654e-02  9.1257642769683811e-01  2.9977206248694224e-02  7.9482693046280584e-01  2.9934112933687092e-02  5.1957866348119060e-02  1.0092781251719138e+00  1.0556570010860661e-01  3.0046506317514605e-02  5.6849960836443295e-02  1.5933047969492997e-01  5.4853156961843161e-02  4.4493151712777942e-02  4.2721881127204972e-02  4.9095886628951868e-02  2.4634617841325184e-02  5.4182909261577088e-02  1.0105347278370349e+00  5.0957135431599583e-02  5.9396386849928935e-02  4.6879838891470967e-02  5.1606566718209873e-02  9.1541028149002857e-01  3.7895959988854394e-02  6.0462767232804381e-02  5.5433783938448715e-02  7.8610114863360259e-01  5.4142356676552178e-02  6.3726702466430779e-02  9.6785090453257427e-01  5.2050932924289514e-02  4.7237460821833124e-02  3.9955715837898080e-02  1.2554662070168199e-01  4.9791761470960455e-02  2.4551985205297378e-02  9.8081659960478995e-01  6.4825410633244776e-02  9.8540400906643200e-01  9.6507955140382484e-01  3.6386793180814642e-02  1.4542272270290355e-01  8.5465459164484692e-01  3.4039167703241779e-02  1.5340053906380005e-01  9.8899054598718183e-01  3.3772080407559919e-02  3.3870464989870015e-02  9.1389872213552603e-01  9.2954848111171584e-01  9.3164405048228838e-01  8.4249578770291489e-02  5.1909799593809487e-02  5.3139262904900834e-02  1.4915288309837010e-01  9.0562180679219617e-01  1.4431506108324349e-01  9.1006487756546184e-01  5.2671329568326229e-02  1.0898844118600856e-01  1.0480557524876688e-01  1.4272972170268683e-01  7.2291024550859770e-02  9.3753128523030083e-01  6.3295519130848701e-02  7.2898160787354130e-02  5.6807107503635455e-02  5.4964824735815369e-02  6.4689223963922168e-02  8.2152446310596039e-02  6.7517063065036298e-02  9.3956621925093131e-01  5.4395623225162691e-02  1.4845430128896753e-01  8.0399337877072291e-02  1.5410176182140883e-01  6.3181023040269166e-02  8.9198591781577707e-01  8.9024614647735767e-01  4.2050755951102477e-02  2.9908758669205712e-02  1.0068883499930983e+00  6.3180658232561596e-02  9.6768482638443243e-01  9.4785074286588389e-01  7.5952330248248023e-01  8.2087619755340083e-02  6.4564249709643584e-02  2.9533793753717189e-02  8.4827234730810830e-02  7.5213584522640139e-02  7.2752307763598298e-02  7.7505705117899060e-02  8.8375468803209389e-01  2.3338994150805287e-02  7.5538998260701526e-02  6.6841792076482082e-02  9.6101359789832486e-01  7.2642594861804055e-01  9.2771796997995259e-01  9.3429675493361231e-01  9.5040496351111714e-01  1.5911388457376988e-01  6.5021248862873665e-02  9.0619813391862447e-01  4.6644111638399557e-02  5.6751391318678512e-02  3.6021101495955554e-02  8.5677990887728511e-02  6.5873398470612229e-02  5.6207437623492174e-02  6.3098670250574154e-02  1.1414239030848487e-01  2.2522170695027734e-02  9.6514740419595194e-02  9.0220581864304605e-01  9.4123527183785738e-01  7.2296976582552153e-01  7.4862845279301626e-01  7.2483077896438597e-01  9.2571363581947813e-02  1.2366528411816081e-01  4.4929704925980668e-02  8.7733611153891522e-01  1.0979469658313111e-02  7.1845040799188020e-01  3.8849753123424549e-02  6.5790047255160022e-02  6.7078020700594126e-02  1.6985629396682009e-01  6.5526333982302912e-02  6.7707421449486604e-02  8.5483839917165172e-01  2.2182715923205105e-02  9.0089717134884853e-02  3.7402574427116024e-02  2.7085514193257328e-02  2.9721926693957939e-02  3.9138179434630480e-02  8.7658243534207259e-01  4.8664522004932174e-02  8.2544155890399304e-02  3.1796359758287797e-02  8.8082595937193986e-01  7.1827261033132350e-01  2.2412282556360803e-02  8.7180228388761272e-01  3.4680836765732963e-02  7.8767686229998912e-02  8.0407255597713806e-02  8.2724242765963768e-02  1.1944401614489941e-01  1.5129029313052827e-01  9.0441784858457464e-01  9.2014270248785779e-01  9.7820832228795918e-01  7.7160759911573826e-02  2.0456478537295281e-02  1.9362310844921606e-02  2.8905277970570398e-02  1.7653901413423553e-01  1.6434918642252694e-01  5.2875042606229009e-02  6.3007399845047662e-02  9.2341882221507188e-01  8.8611735452258289e-01  2.4285201488210062e-02  2.2294719283609214e-02  3.2027136878062488e-02  5.2514015954577518e-02  2.5093960262609630e-02  2.9715597228040673e-02  7.2854691564016055e-02  8.7916426508445888e-01  1.2687314161644106e-01  7.2769365878767744e-01  9.0874219838045367e-01  8.2519118783101064e-01  1.6032972003693191e-01  6.8063729764638828e-02  5.4501457043251142e-02  6.7817167801779377e-01  8.7259779804900406e-02  6.8399051780676456e-02  5.7892012547612212e-02  9.0768211202707794e-01  2.7999317662939550e-02  3.1245235937771183e-02  8.3132073419812699e-02  4.5930149250023047e-02  5.0727495633489501e-02  7.4560461590730917e-02  6.2276505498394537e-02  3.6246711219209871e-03  5.5891200755013533e-02  6.2712010048723218e-02  5.4957006525168883e-02  3.1688143692358554e-02  7.5374249645769512e-02  7.5515154122462763e-02  1.5971602051714609e-01  6.3026629739975915e-02  1.4510228013228513e-01  8.0028292516244756e-02  6.5337858502339807e-02  1.3707075312110897e-01  5.8955232474702239e-02  7.5252358352859788e-02  6.9536914605630953e-02  9.9951453767175280e-01  8.6748510845217908e-01  8.8335501892100554e-01  2.4408172734045597e-02  3.3849202879383269e-02  2.4972330507342069e-03  9.4267480586909647e-02  3.8231468463729927e-02  7.2705832124408995e-02  3.2458011423426830e-02  8.8351974724915661e-01  6.3561054687026428e-02  7.8404093856075066e-02  4.7474222419682376e-02  5.7915851676318186e-02  5.4631790524774820e-02  9.9498808399186145e-01  3.2579890276255234e-02  1.7043348195348204e-01  7.7532147436898499e-02  9.0269367667036082e-01  6.1706272316626322e-02  2.2794955834749275e-03  9.5920293393356204e-01  2.8452341435240006e-02  6.9570394249444459e-02  8.0334038441437564e-02  9.6007048941898751e-02  9.6311951993179401e-01  8.9024425120881812e-01  1.6298391940469251e-01  7.1518678336806613e-02  4.4370162409604133e-02  5.7356870669249887e-03  7.6838533181564944e-02  5.8730841765352364e-02  4.1797125723636877e-02  2.8841702700834825e-02  6.9585070491933509e-01  3.4055251009121622e-02  6.2376556053920069e-02  3.6593595397720224e-02  1.0176103393696037e+00  3.0486670478835295e-02  5.7286753365601246e-02  6.7401667923732630e-02  1.5732202405002882e-01  5.9867942705799981e-02  4.6254412770038646e-02  8.2553102566687200e-02  1.0140522351269976e+00  1.0216336793641432e+00  1.0087367696997196e+00  4.2451306350705612e-02  6.6740317430090701e-01  6.1613387684500288e-02  7.2765967568556592e-02  4.8140056242103102e-02  4.6944409610206288e-02  7.6912281926970638e-01  7.9148062526019206e-02  7.5464843708058971e-01  6.6959256848475979e-01  6.0903676883232401e-02  5.6732646323579931e-02  5.0489934625147864e-02  8.9350356308972445e-01  4.2623590902291779e-02  3.4396656245385404e-02  3.0811768477655089e-02  7.3495941763574643e-02  6.8696184082179451e-02  9.0547012250211256e-01  5.6173756580700215e-02  4.9558210059981220e-02  6.1133724235128063e-02  6.7732500304969773e-02  6.2081319413527902e-02  7.7414875906177419e-02  7.7932331657346851e-02  1.8673908546185750e-01  6.3115059302608800e-02  5.9671136435155779e-02  6.4383020316159889e-02  7.6060826264194206e-02  6.4506958925576161e-02  3.1842327887216346e-02  5.0388570180444896e-02  2.4630299146086072e-02  7.0396070508939049e-02  7.8968677010008848e-01  8.3860520097823754e-01  4.9238495097369231e-02  2.9946040916975274e-02  4.8609059103211658e-02  2.9921039191513510e-02  8.4555322798863283e-02  7.5953002610611067e-02  3.8880868339335288e-02  6.8603947648707794e-02  3.4613607886136044e-02  3.1225214377943681e-02  5.2129734015937970e-02  7.1958598116400735e-02  1.5543404157397328e-01  4.8192099804358353e-02  8.1269104218730306e-02  8.4156506047273996e-02  8.2167330705348221e-02  2.6567333269683694e-02  2.7048782909956399e-02  1.9383589083888222e-01  6.6382217322304171e-01  4.1914087015290369e-02  7.8922393595763793e-02  5.0914057043586494e-02  9.2793372785716721e-01  8.2838858847879238e-01  6.3803356884576545e-01  2.6185168446090864e-02  7.8047082110649021e-02  7.3110789663136055e-02  5.5098271971241480e-02  5.2096593851928615e-02  5.7880040931931137e-02  8.8643594685542659e-01  4.3871391429485027e-02  5.5925099922540557e-02  4.3808305375880666e-02  4.1897562623551335e-02  8.4364889826144707e-02  8.4476790305227381e-02  8.4997516003462281e-02  4.0853636687818128e-02  5.4505490175325466e-02  6.6447816283811800e-02  9.4838777729730672e-01  6.7676357374963925e-01  8.4698747698648980e-01  4.0064816292646292e-02  4.4562190933849388e-02  4.0923511738820278e-02  7.7830545944731030e-02  7.8702397797570545e-02  7.6281085227497367e-02  6.8817625316329914e-02  8.8833972604167177e-01  6.8363748852652922e-02  6.1295094382052238e-02  8.9664681075624308e-01  6.7396341480117042e-02  4.5090791700983110e-02  7.0050689344656913e-02  6.7812520048824210e-02  7.0511683126322097e-02  4.6914368441705753e-02  7.2161156477280636e-02  4.1831724284329110e-02  3.0670609916156708e-02  3.1567715522768214e-02  8.5843270051946211e-02  7.1182342221139450e-02  6.4346046758368802e-02  6.7117408186217614e-02  5.0993546470789700e-02  6.0710826424336284e-02  5.2843570127914449e-02  6.7310943827367700e-02  6.6419739286519661e-02  1.8443227239598414e-01  2.0666902254243991e-02  7.1607812224582503e-03  1.6770132109686209e-01  8.3463525346706383e-02  6.4026311054316512e-02  3.7718068975611904e-02  5.4197018889087033e-02  1.6967162306934142e-02  2.6116175485731922e-02  7.6415461039790702e-02  8.8165895669711081e-01  4.5688978003386248e-02  6.7312438292465526e-02  9.1283470860209825e-01  9.2180136195495121e-01  3.5970597858315245e-02  6.4569004200206295e-02  1.6863026480098053e-01  2.9832378154765565e-02  1.8829139736087734e-02  5.1874481283616172e-02  9.5500263595788459e-01  9.7437397348348709e-01  9.5587659466493469e-01  6.0874658679277736e-02  5.4371148740101106e-02  6.5052056978874812e-02  6.7059913318751024e-02  6.6934313426076600e-02  1.3412757389683683e-01  1.8521237620274367e-01  -3.7223270672415753e-03  1.1185014684506904e-01  9.4117405166040044e-02  6.1548269736937958e-02  -7.0840742265812261e-03  9.4755427036786077e-01  3.1759762586883115e-02  6.5062212456670473e-02  6.5819133227336526e-02  3.5443463119264308e-02  1.9319397065052002e-01  6.1492446059367351e-02  7.1903578759942272e-02  8.4021577684387991e-02  5.9203459365691831e-02  6.0095063335934375e-02  9.4653273180368064e-02  7.5381843475759791e-01  8.1827616229793246e-02  8.6227858272744951e-01  4.5781468516514857e-02  4.1246562092576218e-02  5.9589997313731984e-02  4.9082246958824245e-02  5.2379576010122622e-02  6.8176924715962858e-02  7.7562901957046321e-02  6.1975024576167811e-02  7.5254175407672874e-02  6.3226777641037485e-02  2.8711363157727942e-02  2.7012378193054878e-02  2.1595009840332250e-02  1.4502203130048177e-02  6.6234749606061816e-01  2.0299426527177356e-01  2.4078750608787954e-02  9.5459545260667178e-01  9.7832327211180581e-01  9.7182367457619656e-01  6.6961678816326742e-01  4.0553431931977260e-02  6.5228640860157050e-01  9.1290831171060155e-02  2.0705154995347821e-01  </DataArray> 
</PointData> 
</Piece>
</UnstructuredGrid>
</VTKFile>