<?xml version="1.0"?>
<VTKFile type="UnstructuredGrid"  version="0.1"  >
<UnstructuredGrid>
<Piece  NumberOfPoints="1198" NumberOfCells="2284">
<Points>
<DataArray  type="Float64"  NumberOfComponents="3"  format="ascii">-1.012619362167831 0.1954689529631712 0  -1.008912877445855 0.08536030787234039 0  -0.9927163227122358 -0.02353935603971788 0  -0.9641609260770646 -0.1302768230441669 0  -0.9238433589038946 -0.2331183295989559 0  -0.8722869554592064 -0.3306386966832284 0  -0.8102868315932454 -0.421903761064434 0  -0.7387275302440712 -0.5052342730093662 0  -0.6592704369513622 -0.5794040176756905 0  -0.5739904258306412 -0.643416366609695 0  -0.4841466736451718 -0.6972120664733307 0  -0.3895020512154146 -0.7415815937813605 0  -0.2915132106150424 -0.7757753333384797 0  -0.1913329950716381 -0.7998216317435859 0  -0.09036191068579728 -0.8136136537322228 0  0.01145447179180845 -0.8173385530249802 0  0.1128747984126064 -0.8109098494837782 0  0.2137233408663302 -0.7943917396315648 0  0.3132710421465018 -0.7677264115565754 0  0.4105765585948069 -0.7307896988747233 0  0.5038551090336217 -0.6840162562221647 0  0.5924796310573848 -0.6276054900783796 0  0.6758549216970746 -0.5614550965082311 0  0.7531279544738703 -0.4851175193601709 0  0.8222570138439802 -0.4001255427093094 0  0.8819740264297052 -0.3075128976753013 0  0.9312203744288214 -0.2083500048831334 0  0.9689562868334557 -0.1043472252665733 0  0.9945924580876885 0.00270111677449874 0  1.007863486055875 0.111756524946781 0  1.008778568930373 0.2217608407555849 0  0.9972004349132233 0.3312869755401851 0  0.9734421592667282 0.438394489160381 0  0.9376981683059893 0.5421912422414225 0  0.8907010415316503 0.6411380772794049 0  0.8328704883674757 0.7345906307541488 0  0.7652514383962399 0.8208260001407686 0  0.6883936939937622 0.8991720106568859 0  0.6033744048144341 0.9686663507980032 0  0.5112025458717625 1.028584292208562 0  0.4133669128582425 1.078148965236211 0  0.3108147170682356 1.1170007516908 0  0.2045183255197409 1.144693920110286 0  0.09554390343359914 1.160899454437555 0  -0.01477190277935403 1.16532212061469 0  -0.1243421694197516 1.157951474960611 0  -0.2322700318313625 1.138966997630507 0  -0.3375728287166767 1.108532673138403 0  -0.4394237442918723 1.067026327627076 0  -0.5362243589597885 1.014681741737236 0  -0.6263862754045131 0.9524306259911616 0  -0.7094065549783946 0.880747692658426 0  -0.7841305360346636 0.8004609138726627 0  -0.849620767511029 0.712426716803837 0  -0.9049079119840818 0.6179277014241251 0  -0.94943277142797 0.5176082751308652 0  -0.9826138548705469 0.4128179538756729 0  -1.003819421518589 0.3053061757499597 0  2.420094316772488 -1.563730100775308e-06 0  2.41183214438141 0.1998516980035938 0  2.387087935829386 0.3983366043454847 0  2.346022907925083 0.5942088927756347 0  2.289013985642359 0.7857002101451924 0  2.216258935446415 0.9721390401761619 0  2.128410370676234 1.151837580434125 0  2.026022589937557 1.323668022939139 0  1.909747632790302 1.486534014856306 0  1.780532722302111 1.639095104341937 0  1.639162101113373 1.78046795610174 0  1.486372441111276 1.909871849036668 0  1.323766326980815 2.025970669257408 0  1.151762258363607 2.128464941696904 0  0.9721600650966156 2.216267905981424 0  0.7857959382218108 2.288986808983329 0  0.5941933195243396 2.346029550001566 0  0.3982465290711154 2.38711579348065 0  0.1998514843094129 2.411844528045458 0  9.14657159290248e-05 2.420107645321793 0  -0.1999613586428209 2.411831753199432 0  -0.3982275550952954 2.387118294791947 0  -0.594099074662092 2.346042489574256 0  -0.7859138938403949 2.288941911369659 0  -0.9720441512545471 2.216313924248546 0  -1.15194015599982 2.128367730854797 0  -1.323579525754558 2.026092963881817 0  -1.486454439892783 1.909799255829672 0  -1.639089596365048 1.780524081906846 0  -1.780604061171912 1.639009834168147 0  -1.909735795841332 1.486546199220649 0  -2.02608320459358 1.323595035752428 0  -2.128422554159578 1.151844390952006 0  -2.216232634095958 0.9722297396974268 0  -2.288971016372082 0.7858021546431212 0  -2.346078187020893 0.5939917575237622 0  -2.387079460898013 0.398446432067598 0  -2.41182846401953 0.1998512512415808 0  -2.420094288232554 -5.372263226403674e-07 0  -2.411828557375719 -0.1998510723863666 0  -2.387082897115489 -0.3984290128625326 0  -2.34605714572152 -0.5940907686002693 0  -2.288980684036476 -0.7858094711327459 0  -2.216272992182754 -0.9721455169538014 0  -2.128416548149548 -1.151855353435956 0  -2.026083126787118 -1.323593229457094 0  -1.909735213969316 -1.486546717286814 0  -1.78060361032197 -1.639011622482363 0  -1.639023260678242 -1.780592190166815 0  -1.486472203693091 -1.909799412556655 0  -1.323673841308217 -2.026036305551456 0  -1.151846003114661 -2.128423763727979 0  -0.9721473418715836 -2.216273208033271 0  -0.7858087970830552 -2.288982757276528 0  -0.5941017275785188 -2.346056190967679 0  -0.3983374652819081 -2.387104050989165 0  -0.199850819281272 -2.411844990447103 0  -1.680114848904814e-06 -2.420111106347401 0  0.1998631491011744 -2.411843857469774 0  0.3982433977596455 -2.387115550714892 0  0.5942081823458377 -2.346024645957125 0  0.785702780707549 -2.289014055754653 0  0.9721414882353987 -2.216259771628424 0  1.151928089059187 -2.12837448682127 0  1.323663239478587 -2.026042706982211 0  1.486473286463359 -1.909798748949754 0  1.639024312309556 -1.780593809988451 0  1.780604797252802 -1.639011828375229 0  1.909735267332387 -1.486546180876487 0  2.026091521467348 -1.323580250558952 0  2.128366214076252 -1.151940253321779 0  2.216305351861822 -0.9720612881481854 0  2.288980493154732 -0.7858077129007783 0  2.346027008963184 -0.5941896724384714 0  2.387115501956915 -0.3982273739453954 0  2.411829681044185 -0.1999624882059426 0  -0.001015815083987298 0.1796825003847061 0  -0.07731392514948321 -1.61910627517999 0  0.715338644405622 -1.466782394937801 0  -0.8363205751857832 -1.406631373586806 0  1.31731390851282 -1.003960715918572 0  -1.431891617137541 -0.8562175363090717 0  1.652891914712622 -0.3616945507306844 0  -1.707802511020202 -0.07547377530247601 0  1.696606676307586 0.3265494597982595 0  -1.637032944858575 0.5964222356706379 0  1.436967996578329 1.019603769868232 0  -1.324237735525085 1.169788368027188 0  0.9160087026943011 1.530351674844178 0  -0.7889252931911751 1.602452188835941 0  0.2432815087256154 1.775216393926215 0  -0.299702079388293 1.849974761966853 0  -0.5055064152724787 0.110172541998723 0  0.5047396680055835 0.2281874146477613 0  0.2880857699744763 -0.2266447335467068 0  -0.2996720216351703 0.5779330128568931 0  0.2058594139748144 0.6293379972258785 0  -0.5474026087263484 -1.832176548700877 0  0.3918493746329164 -1.869630378671569 0  -1.347684927486752 -1.359391775613849 0  1.25671938210088 -1.483629223793389 0  -1.847313495168714 -0.5521331094598479 0  1.763201298990738 -0.8629033497196761 0  0.2658880644219772 -1.279556614735826 0  -0.3797717241548991 -1.250405425409972 0  -0.1967544523362073 -0.2720860075587448 0  0.8474081151228746 -1.022719095163305 0  -0.9058990893872204 -0.961433825996506 0  1.992596382670525 -0.08513376507373045 0  -1.419268427934273 -0.4158281443100361 0  1.24824858812368 -0.5640226329970459 0  1.865513711251066 0.7238364740385099 0  -1.956893815609346 0.2931859094086527 0  -1.723369109191056 1.022385458391926 0  -0.08382697386277663 -2.025540170696134 0  0.7913923885993915 -1.860665938323069 0  -0.9428214008779858 -1.791177464378835 0  1.347958505741312 1.452057490130951 0  0.6609961542880373 1.878488224652816 0  1.422542982706505 -0.00537116378166895 0  -1.214195606575412 1.583413724833305 0  1.584295416384516 -1.283492426852337 0  -1.110975587908264 -0.6497514975389694 0  -1.677221378310782 -1.157689001734616 0  -1.428375715790959 0.2314687572362563 0  -0.3883321910669411 1.48172673357002 0  1.369488432471766 0.5964487045361815 0  -1.276207715929 0.7690647976736616 0  -0.9251795431649477 1.22135875540048 0  1.038706582931982 1.132220137479885 0  1.974481065798027 -0.5556905849055894 0  0.5139724368843483 1.470700356486542 0  -2.0428364324766 -0.2372518493766885 0  -0.02605588050566934 1.528647994579671 0  2.052136018723779 0.2686184904823823 0  0.005021483265015609 2.054833712237635 0  -1.944582540397189 0.7586420877194709 0  -0.654843187490223 1.946556705286981 0  -1.613150345416952 1.337802864340728 0  1.709952560074621 1.217056762362165 0  -0.0577401176328972 -1.288388481001263 0  -0.6161265711260123 0.4349106812809458 0  0.6063638006677285 -0.1033299371615058 0  -1.374897369394764 -0.09290001246553291 0  1.175262907967768 1.733244710877271 0  0.5107111996787463 -1.056319941321008 0  -0.5286210909974153 -0.2415259287149522 0  -1.012043558395968 1.837482546349294 0  0.5392561796304683 0.5758346633386876 0  0.3200610793064516 2.082267000450785 0  -1.750724763085006 -0.8515054476469825 0  1.1502511285531 0.8298988244061499 0  -0.04697195462200747 0.84060451161687 0  0.0404281243405556 -0.4885963716311629 0  0.7448445601381886 1.251750126093563 0  0.9670314274182962 -0.7270917990606673 0  1.09307975776933 -1.217552577760543 0  1.392788385588945 0.2945197958261344 0  -0.6663126290079915 -1.148977742875195 0  -0.5454188431493781 -1.518396384182205 0  0.9826621309797147 -1.621170560923531 0  0.2349034869038569 -1.594208634243307 0  -0.650204557896461 1.337666253203786 0  -1.107951626514974 -1.540189641549309 0  -1.074596176486497 -1.217765693629312 0  1.546706603235744 -0.6457391642760485 0  1.361625045987049 -0.2933205024212294 0  0.2070019857539928 -2.109867789710356 0  -0.3807646360489661 -2.085458703175616 0  -1.097831472317905 0.9925403163547089 0  1.702389853403601 -0.07986690268372425 0  -1.391072335522974 -1.641693707560065 0  -1.369584485542615 0.5048577262996721 0  0.9498000107320799 1.91968379573726 0  -2.150811682653448 0.08687073925250956 0  1.226194395226377 -1.763216818848993 0  -0.2692595445783382 2.134086765742212 0  0.2358951517093836 1.423585105278882 0  -2.014703225574383 -0.7705027877242422 0  0.09628523961946746 -1.825261567294429 0  -0.5399022945179183 1.70363104
[...]
<PointData  Scalars="f_3427-1"> 
<DataArray  type="Float64"  Name="f_3427-1"  format="ascii">3.4207004855541012e-01  3.4277790741810865e-01  3.2639145916618112e-01  3.3924013976679440e-01  3.3147816227440635e-01  3.3136419070303269e-01  3.4275167640678494e-01  3.5274550680216865e-01  3.9301383397540895e-01  4.3744157267189138e-01  4.3986108622178144e-01  4.4486046987340516e-01  4.2808455541835483e-01  4.2716504232229202e-01  4.0278682822908390e-01  3.9914904443059751e-01  4.1627695275262561e-01  4.1721272672492954e-01  4.3525907303435696e-01  4.2603417742595440e-01  4.4055957374562688e-01  4.2871234670213360e-01  4.0365557224261789e-01  3.5191009096516629e-01  3.3597273857837801e-01  3.2993379530104294e-01  3.3393860276877951e-01  3.4986443412931878e-01  3.4036565518898149e-01  3.4841730762958056e-01  3.4182172780614001e-01  3.4446173442225786e-01  3.4151935589612120e-01  3.5883567641226249e-01  3.4761128497426214e-01  3.6512292952362974e-01  3.5967496140729621e-01  3.6191422709926396e-01  3.6954512672209255e-01  3.6520178387445035e-01  3.6923958475330498e-01  3.6361259326927758e-01  3.8091932521734961e-01  3.7675619937899918e-01  3.6980825021685576e-01  3.7619411700484434e-01  3.6707270906146694e-01  3.6390161277145472e-01  3.6694588966722891e-01  3.7068550058368993e-01  3.7670946610793377e-01  3.6208253988514827e-01  3.5934013644573565e-01  3.6044035626293303e-01  3.5757567422032493e-01  3.4775424133927102e-01  3.3927958203754338e-01  3.4843775375030916e-01  -9.4453686916281324e-02  -3.1682860067561512e-02  -8.2436459523369768e-02  -1.9308477196325155e-02  -1.4032195752510317e-02  -8.7668262802650346e-02  -7.9626973142275834e-02  -6.8100923122201590e-02  7.6052712838882491e-03  5.9888280445237422e-03  4.1063909056811964e-03  2.9584882118029220e-03  5.3781868767845816e-03  1.3180976867705928e-02  2.3804471113538977e-02  1.7778070113125436e-02  1.6050389553173210e-02  1.9621727201133591e-02  2.4271534149806352e-02  1.6199441722666311e-02  1.7198701199481317e-02  2.5369866694412779e-02  -4.7029178901713799e-02  1.2795248449296186e-02  1.5984111282841152e-02  1.2435312913170557e-02  9.2281910979020339e-03  -1.1180254808623684e-02  -1.1946587366054660e-02  -3.1955766724220944e-02  -1.1346323297400592e-02  -2.7713682095294786e-03  -5.8142581049751665e-04  -3.7964828101089481e-03  -3.3258893142958434e-02  -1.4600599264462189e-02  -1.9844072019787742e-02  -9.1194404552632530e-02  -9.3256090812816106e-02  -9.1986465895423072e-02  -2.3348509881589839e-02  -1.2780531696399384e-02  -1.7765792817125245e-02  -6.9672567986504251e-03  -1.2793623678324718e-02  -1.7843100762415756e-02  -1.4597185199568768e-02  -1.4697166352757168e-02  -3.8656121649251224e-02  2.4974483746665397e-03  6.0941281870641470e-03  1.1163341305694524e-02  1.4854109195811496e-02  1.6646171669169419e-02  1.1237559021876216e-02  1.7841732900269684e-02  1.2097988230584587e-02  1.2336542927464908e-02  1.8448892973855970e-02  8.2260171802074154e-03  8.4241173269528485e-03  4.8260269475600423e-03  -5.8513552706618330e-02  9.5416162050997622e-04  7.7756439016041356e-03  1.1307395591816745e-02  -3.9381423413428823e-03  -1.7727785323445324e-04  -1.9859144614363004e-02  -7.4576094889767528e-03  -1.6231814834387032e-02  -1.9060574934102761e-02  -1.2905630021915655e-02  -5.1740595066653537e-02  -2.6033786413876787e-02  -2.3254675598120084e-02  7.9788399821446332e-01  6.1240379412236798e-02  5.8324370674136074e-02  5.5326389603258114e-02  4.3461986482152930e-02  3.7925841197336198e-02  3.2946165025993769e-02  3.3432311270015121e-02  3.6828315422674215e-02  4.2157492906483733e-02  4.9572317568110424e-02  5.4544200411455364e-02  6.3402068333707914e-02  6.6489700847313260e-02  7.1327513616451843e-02  7.0955337391565274e-02  7.8639696998115383e-01  7.8059694953672376e-01  8.2240791735128094e-01  7.7279603119703388e-01  7.7265579026855635e-01  5.9136720672389058e-02  6.0580252838486677e-02  4.6288005470540843e-02  5.0204223811494850e-02  3.2344153210938344e-02  3.5740706378412583e-02  5.2800367104460288e-02  5.1925034839756509e-02  8.2491058617229340e-01  5.1872832001465495e-02  4.6575732695575189e-02  3.1691368784998085e-02  2.9992728332606990e-02  3.0756463131941622e-02  3.9902932469179905e-02  3.5426626687588655e-02  4.6479371338721348e-02  5.9472752254959571e-02  5.6746586163476123e-02  5.3959014556660294e-02  5.5508190576421632e-02  6.6825721403840813e-02  2.9070626478090764e-02  5.9494114675563300e-02  4.1835335928497391e-02  2.9672443223297103e-02  3.7806420098502852e-02  3.2819537904235113e-02  6.8725118938711263e-02  4.0367388069630680e-02  4.5289791212408489e-02  5.9447491766319853e-02  5.4860564312846055e-02  3.0709198560880464e-02  6.7052198735910368e-02  3.0009652392449973e-02  7.3954382298442978e-02  3.2460052460274218e-02  6.9577418720412190e-02  3.9555105705232678e-02  6.6857518701108426e-02  5.0184670237110367e-02  4.6153838050074149e-02  4.9230834446242933e-02  7.6756023230409232e-01  7.8531618537970815e-01  2.3764378024845694e-02  5.8495003420062419e-02  5.6854613380397385e-02  7.9655154761974845e-01  6.2161622122596072e-02  7.5947114075258848e-01  6.7401862681290170e-02  3.4799595741008500e-02  4.4369846564843822e-02  7.6410416372328804e-01  8.4196663623456913e-01  6.2907377542663373e-02  3.7052211255861819e-02  5.0775064622571753e-02  3.1061294566448027e-02  5.3831397662599756e-02  5.8888983872565061e-02  5.5426160396338277e-02  6.1085434995130292e-02  6.7723254125149929e-02  5.1847684470693718e-02  4.9473884167390327e-02  3.5312326677371546e-02  2.7238883771746738e-02  5.7316059397746727e-02  5.6547957290403107e-02  5.2666810922678525e-02  3.3169484179004442e-02  4.4171771194872998e-02  3.9827274477955914e-02  6.0655872465210953e-02  2.9424149773150922e-02  4.8795704891449125e-02  6.6957457977257925e-02  8.0365485510445575e-02  2.8391100374597893e-02  6.1794884655026153e-02  6.9513660743216590e-02  4.0873845336895552e-02  3.4796450547786899e-02  3.7785429948661381e-02  2.8815571007481437e-02  7.2000167168870657e-02  5.4620994108720240e-02  5.3235448604785643e-02  4.4222976822011685e-02  7.5304645299311079e-01  7.5805883887409165e-01  6.0682353746764478e-02  4.3703809929905024e-02  6.1129049896455109e-02  3.9042477854305847e-02  7.4535337965944515e-01  8.5621209996210945e-01  3.4192909152280987e-02  8.5044373375108817e-01  4.2397134235820678e-02  7.8132503743087489e-01  4.6988723388700276e-02  6.5898166281460197e-02  8.0480995248195275e-01  7.8528258455855637e-01  8.0206783250555957e-01  8.1126252246010055e-01  7.4803162891913022e-01  5.5007410859944234e-02  7.8108214538984888e-01  4.6157317566724879e-02  2.7397330843376429e-02  4.2402530095026716e-02  3.3285429869430810e-02  2.6515491364197726e-02  3.2671887101828501e-02  4.7032478819732292e-02  3.4059986147821221e-02  3.4357306233909944e-02  6.8274980415882480e-02  5.6499377293797205e-02  2.8866802065362233e-02  2.9789092267436160e-02  6.0511631196883874e-02  5.7848856544236077e-02  5.2514231760033572e-02  7.9432026600654099e-02  2.6876110289157772e-02  4.8214572060806198e-02  4.7810680729774062e-02  6.4202414936576677e-02  7.6511892522598313e-01  5.2245459761499899e-02  5.5752853886827665e-02  5.9212198768695608e-02  3.2704441673333973e-02  4.0118049536084686e-02  3.2375331191329654e-02  3.3917942934860550e-02  5.4864601265113409e-02  4.5161961294885089e-02  3.9064962796185924e-02  5.1895285203260373e-02  4.0867511217072716e-02  7.6690901467849981e-01  8.0410624628425087e-01  2.7642257937723905e-02  7.5287351965750482e-01  4.7424463157423692e-02  4.7784756018538710e-02  5.5522357099421292e-02  3.9031498199703189e-02  7.4250756606615620e-01  5.0665454804306793e-02  3.8114651891780094e-02  3.1696857576687817e-02  3.1285185839317969e-02  5.6728850898101472e-02  2.9567692554605344e-02  4.6882874353810930e-02  6.3290548254354720e-02  5.9812571247862989e-02  5.8730538551102572e-02  8.4756505301120555e-01  4.4266252506658547e-02  3.3941920008938246e-02  3.7942825400330650e-02  3.9253284124082743e-02  5.7777048913449335e-02  6.9310888790725084e-02  6.6720753751648196e-02  6.8471105281312353e-02  3.3717933105376775e-02  6.8289752006196525e-02  6.1401693283637482e-02  3.3844776475359238e-02  5.0994463540022558e-02  4.3931921138101369e-02  4.5959005396426028e-02  5.8459978792491797e-02  8.7055626949878992e-02  5.7822668253600322e-02  7.1158920662660385e-02  4.4197249844688979e-02  5.1961938473919798e-02  5.3675197634238725e-02  8.4643067713506617e-02  6.1620330751446795e-02  3.4751049748714735e-02  6.0603121529684445e-02  7.9265970293217514e-01  5.4405368937534289e-02  5.2272141779241124e-02  8.2340206177446584e-02  6.5246857684971404e-02  4.0715323475319830e-02  4.2127001932456901e-02  7.6719204831558280e-02  4.9022882987994780e-02  5.9082920757319364e-02  6.2489372977579637e-02  5.4593345038751101e-02  5.4258884077835780e-02  3.2815505054512188e-02  3.6825203796118179e-02  8.6393518250718782e-02  5.0584054917790160e-02  6.8860083248209039e-02  3.2144559980087001e-02  5.8967663016896980e-02  5.9112252750195528e-02  5.8759829828569143e-02  3.1229589097433300e-02  5.5326635864025774e-02  5.5032784843214916e-02  2.6485039606556127e-02  6.3753820396006758e-02  5.5254345940635462e-02  6.3218570167386634e-02  5.6085768178440729e-02  2.5842217821380988e-02  6.5109701249591867e-02  5.6346942109985018e-02  3.2948218190588539e-02  2.3188532186691098e-02  4.6513887377937345e-02  2.0744246025176959e-02  8.2111664820948871e-01  8.0257016401310044e-01  9.7240484270505592e-02  5.6199768403010296e-02  1.1828802449067419e-01  3.8632623098582862e-02  7.7424793522143889e-02  4.6485996979884585e-02  7.7742783495274947e-01  3.4684311704881371e-02  7.9458235367024288e-02  7.9437327271234037e-01  6.2513150864872996e-02  2.9680711391313973e-02  2.3159283888075508e-02  6.8729274145141392e-02  7.7299224238451181e-01  7.0757583211886188e-02  3.9715514130046141e-02  6.6060649019629186e-02  7.8168658458209894e-01  3.2817783699652846e-02  5.4498104581517277e-02  7.3638819650062903e-01  6.6217357093349416e-02  4.3949913149510592e-02  2.4651895471977568e-02  6.1803066945132074e-02  7.1383380172505728e-01  7.1019683155603267e-02  7.1174982426813069e-02  4.9335018148589996e-02  8.4160248315226871e-01  7.2165639395850120e-02  3.3249172634398562e-02  4.2307650503106420e-02  3.9211516241071963e-02  4.6201322087383132e-02  7.1637548120962402e-01  7.2414395540035381e-01  7.6826453709417941e-01  7.2062406221017239e-01  5.2256841409720603e-02  3.5712658737352125e-02  3.6249952659884926e-02  3.1117655094518679e-02  3.5955298197059213e-02  6.9928988084608401e-01  6.2521768695414870e-02  4.7689270853610459e-02  4.5679235868256188e-02  2.0990482940016424e-02  8.2384338345282748e-01  4.0005949778695128e-02  2.4891296824141693e-02  5.6980623503021910e-02  2.4578348460961817e-02  3.2629602814835033e-02  7.7262718329826574e-01  7.0183133392421193e-01  8.0720437444269177e-01  1.3204228588641481e-01  8.1289455580638686e-02  7.7681771856850834e-01  5.6276759015929566e-02  4.6677361420581348e-02  3.8383882395393885e-02  6.0666089575676450e-02  4.9693696483660996e-02  5.2592924385045918e-02  8.2655828284837718e-01  7.7107528241199841e-01  3.1097757271450553e-02  3.2135585112686417e-02  5.7805056840310724e-02  2.8576549744381282e-02  4.1952781144831405e-02  7.0099353434476697e-01  5.7032133924692648e-02  4.3769586691158394e-02  3.5354470967055317e-02  4.3386347462998139e-02  4.6512650666913152e-02  2.7995260884759118e-02  7.1920829166166056e-01  7.6700996441777003e-01  2.8046742601243790e-02  3.1992668719099518e-02  4.1423922071405640e-02  4.6202333871979376e-02  5.1499068321317301e-02  3.3746627966159605e-02  6.2204644061187822e-02  5.3449755556524654e-02  5.5113095388366527e-02  3.5118278489623650e-02  5.2450886832787154e-02  7.0556893433789281e-01  7.8597555048168510e-01  7.9002734121605500e-01  4.6453000143929800e-02  4.5545948524815236e-02  7.7286472176941967e-01  3.9493468829404223e-02  1.1895973180234549e-01  5.2565112390687396e-02  4.9451681572289893e-02  5.6555254815335403e-02  4.8818441336286642e-02  1.0017099862567182e-01  4.1338865349657285e-02  7.0785052817635946e-02  4.8912030649512238e-02  1.0922201390659084e-01  3.7011445138034553e-02  5.7029731659641592e-02  3.3562059778622103e-02  6.9867153407809371e-02  3.5464871487135181e-02  2.9353759593084932e-02  8.3657833237022672e-01  4.0488143390585811e-02  3.3982882530103647e-02  5.9400532060092513e-02  7.9020254047244953e-01  3.6566712589486350e-02  3.5929517174526311e-02  3.3883157338861609e-02  7.0156921148357851e-02  7.7492274913990544e-01  7.8048410474995500e-01  7.8820966347342403e-01  8.0768563839846008e-01  8.1124166190266123e-01  8.0514627600644040e-01  7.9538597727032989e-01  7.9037970691895942e-01  6.5946945372425125e-02  5.3682837874380877e-02  6.1451516490116410e-02  6.1350475349224970e-02  2.1889221960598983e-02  5.8069655345253685e-02  3.1616008501894499e-02  7.7813933518583223e-01  5.9474107734319291e-02  5.7570712348583228e-02  4.1595205837655330e-02  5.7978690074797265e-02  5.0105631369247859e-02  5.0715618962478573e-02  4.7234584262302981e-02  5.8094136442671161e-02  1.1882121126034527e-01  9.9785883299908659e-02  3.0359695688324920e-02  4.3873663764370664e-02  1.0851892537434073e-01  6.1011725950178605e-02  6.2567786771045075e-02  5.2300049456233080e-02  5.3971918886227654e-02  5.2128926838285523e-02  8.2092758828325385e-01  5.7974754136019144e-02  4.8999570000171709e-02  3.5032578768126224e-02  8.2837432957864499e-01  6.0599114790308682e-02  6.0178948678690815e-02  8.1290845690568092e-01  8.1332648794734741e-01  5.1747143750353809e-02  3.2350057840370532e-02  5.8007181295896736e-02  5.8400058632320541e-02  5.8895691893102696e-02  3.1546725916151194e-02  3.5923599199541516e-02  1.3877971667185468e-01  4.2368378335285735e-02  7.6631338013561179e-01  6.1864640759989882e-02  5.7681572323396539e-02  4.8258008610788480e-02  4.8476075561904260e-02  5.2990451883403997e-02  4.4436506592825602e-02  5.2342035742553694e-02  1.2265826980924334e-01  5.0872577526850003e-02  6.0867220495263927e-02  5.7662715960819726e-02  2.2380848655159800e-02  6.9223971429375156e-02  4.8564702917767481e-02  2.3794379512266001e-02  2.8780426211511553e-02  5.2475315148881381e-02  4.9982413914782579e-02  6.9957440414843697e-01  2.9012679924122299e-02  3.3102512929866490e-02  4.8713480452267151e-02  4.7897262188049197e-02  6.7954858692348430e-01  6.4101056112074367e-02  8.4634784486519798e-01  3.3747869610911571e-02  1.3156374821332589e-01  5.7854932919335557e-02  3.8860193646970166e-02  7.8803494932878429e-02  1.1516119500158455e-01  3.4656047809094620e-02  5.9493633595313310e-02  5.0172579777118198e-02  8.0169028466420877e-01  7.8991464195013950e-01  7.0116635900552310e-02  6.8144367131496922e-02  8.3513391146131183e-02  1.2993651423951874e-01  3.2953808266350151e-02  3.2950437752160812e-02  3.1794688418288738e-02  6.1875853847513436e-02  6.3397261674521532e-02  5.9998187754986394e-02  6.4549729617613050e-01  2.0140214523961177e-02  5.3134837729009378e-02  4.7628159910175820e-02  2.4286629522822522e-02  1.3348796123659268e-01  3.8056799249604450e-02  6.8510515989225737e-02  6.9840734310101529e-02  5.8968515932982857e-02  7.1665986575434146e-02  2.4465464435123690e-02  2.4827072248381425e-02  3.2171165739857496e-02  5.7302938126757609e-02  8.0653104022328892e-01  4.3247603254664591e-02  4.2933942826981236e-02  3.3656653792470473e-02  6.8492681836776495e-02  7.6946158735052464e-02  1.2363402707175654e-01  7.8824978978528315e-01  5.3612549154515257e-02  4.2125578357346559e-02  3.6609121080093128e-02  6.6608370622051349e-01  6.6874174886815096e-01  1.4815071247129694e-01  4.3400489940390183e-02  4.7428023462547299e-02  3.7970561121780731e-02  3.9080276983821563e-02  3.5064311005862152e-02  3.1831643333199759e-02  1.0782351892465747e-01  3.1787499689558428e-02  6.0308685419973536e-02  6.1615570298335545e-02  6.0778704904531938e-02  5.6312687303381306e-02  4.3687805807021363e-02  5.8554968577622421e-02  3.6611997143423808e-02  5.9367768233004492e-02  5.6114392673710496e-02  3.2455218029416845e-02  3.1756953121692924e-02  5.0980920207567726e-02  4.8784681781067867e-02  5.6327484724719851e-02  4.3987485992174266e-02  3.0657748783401561e-02  2.9700337544984103e-02  6.5941411612730913e-02  2.4288755264558665e-02  3.7571396953888364e-02  8.4508877275300695e-02  7.4203815325972061e-02  6.1126659273993217e-02  3.6759140100129761e-02  3.9852705634293439e-02  3.7367569259973685e-02  1.2819911409659837e-01  3.5264432139919755e-02  3.2401771665652834e-02  9.2971342426125578e-02  3.7914073216714979e-02  7.6662045599496242e-01  2.7907998307137437e-02  6.2527568478469867e-02  5.0706971271291014e-02  4.6530695190085694e-02  4.9790381178734223e-02  7.4658253836071065e-01  3.9360668247273620e-02  1.0701608123033299e-01  3.1422199064773178e-02  3.3865578761910077e-02  2.4605135797639281e-02  7.7835229136204043e-01  3.8841671369127233e-03  2.3001886633821005e-02  5.1526699969329195e-02  6.9720821363119606e-02  6.8199568071136266e-02  7.7137158004185880e-01  6.0695243669425789e-02  3.7918240960847338e-02  6.4452200905854939e-01  3.8319009473194679e-02  2.3704571807956171e-02  2.6094690733168033e-02  4.4506648041570292e-02  4.1695968258020098e-02  7.0163212128255270e-01  5.4436592177195729e-02  7.1548044710627784e-02  6.0991417179669147e-02  3.3348855554876482e-02  5.3301841654775396e-02  1.2522898691644250e-02  5.6037998517349981e-02  4.8227344531579314e-02  3.5842641660954737e-02  4.4511664153968032e-02  4.6546636561744167e-02  7.1814454216435022e-02  7.2043900903890748e-02  2.8516831504125401e-02  2.8345923926937078e-02  5.9657184796992474e-02  3.5547687912183705e-02  4.3156827662663655e-02  6.4264931830178773e-01  5.6951246884044536e-02  7.6394883113887635e-01  6.4168580690071378e-02  6.4499745598541236e-01  7.7595483043679825e-01  3.8387001692435245e-02  4.1284141097016502e-02  6.1782996354743436e-01  6.6973563917627793e-02  3.2499119115208197e-02  7.6330376996206784e-01  1.0700897380780867e-01  4.8913957576381194e-02  1.4103524913967780e-01  4.5985130340875056e-02  7.0229163641847545e-02  3.0422471358673417e-02  2.5186289866077759e-02  7.7655059435238616e-01  4.0305719974444015e-02  4.4562032836686881e-02  8.2998495695170227e-01  7.9819929653511545e-01  4.3633155038358684e-02  5.2440064999920620e-02  4.7812608179953066e-02  7.5980002522871404e-01  4.6295545391149474e-02  7.3522899855864277e-01  7.1299343532448017e-02  8.0817914916957934e-01  6.0847663593142649e-02  6.5097961028697110e-02  3.1920728317280107e-02  6.0286023410854789e-02  5.6674173250395359e-02  3.8905100863400613e-02  1.6692214931316382e-01  5.3565572773394791e-02  3.4149237373938691e-02  1.2026706483635692e-02  3.4116627872257520e-02  9.7092024209794556e-02  5.2509400037882625e-02  5.9669200650812743e-02  5.4531475470109732e-02  5.5307271428281533e-02  6.3441225931390566e-02  7.7745379707573115e-01  4.6768005793300642e-02  1.0249594690800760e-01  3.2507036451228918e-02  1.0167965232672108e-01  3.3028460369653422e-02  3.2486166236842445e-02  3.1825807179133601e-02  4.0211323759592417e-02  3.0565461851365130e-02  6.1088201850117063e-01  4.4722253141929576e-02  4.4292999996724841e-02  1.0252477548150148e-01  1.2350119864663782e-01  6.1938982347191640e-02  7.6162647578646692e-01  6.0714944809558864e-02  5.6843959774970400e-02  3.4104128998530679e-02  6.4934272858437336e-01  6.4336743145699005e-01  4.8642082513153842e-02  2.6509925611770280e-02  1.3421726208309007e-01  5.5075018187944511e-02  1.4044498590090584e-01  1.1177129082532261e-02  8.1340208035146611e-01  1.5678692046040058e-01  6.0148011943518619e-02  1.1794823786430113e-01  6.1118227795519744e-02  5.8624935394927961e-02  6.7073092180775562e-02  6.6861471736933242e-02  5.2912948373778544e-02  2.5904820408110676e-02  3.7172393628591024e-02  6.8293062844870175e-02  6.8831371017661000e-02  6.7844132769737095e-02  3.0312623864681674e-02  2.9582091602096284e-02  3.4038452657777669e-02  7.6756198316241364e-01  1.0019403068586807e-01  4.5332968278357602e-02  7.3267080201672974e-01  4.5987236006963875e-02  5.872275035985115