<?xml version="1.0"?>
<VTKFile type="UnstructuredGrid"  version="0.1"  >
<UnstructuredGrid>
<Piece  NumberOfPoints="788" NumberOfCells="1491">
<Points>
<DataArray  type="Float64"  NumberOfComponents="3"  format="ascii">-0.9584230589482552 -0.04175276989956201 0  -0.9519657971191376 -0.1456104839691847 0  -0.9336111084425288 -0.2478901594619102 0  -0.9037704422545296 -0.347423612573331 0  -0.863038751993451 -0.4428423211387723 0  -0.8121290781662073 -0.5326036227979212 0  -0.7524487331860542 -0.6153597736285122 0  -0.6849007965830641 -0.6903883171989872 0  -0.610331123442617 -0.757142170139962 0  -0.5293033396132157 -0.815533725639898 0  -0.4426484137247844 -0.8653372141400871 0  -0.3512921644191808 -0.9058704665125458 0  -0.2566337888957841 -0.9369097336741683 0  -0.1591107041579433 -0.9582772210986633 0  -0.05976588935727093 -0.969499026275961 0  0.03994786382072613 -0.9706164607514844 0  0.139277580380007 -0.9614380992895412 0  0.2371040328800967 -0.9422461409413097 0  0.3326060612449731 -0.9130844601723705 0  0.4245538590521288 -0.8743966997654714 0  0.5120393345885438 -0.8266222030517703 0  0.594435908054586 -0.7699114600064267 0  0.6705840058644106 -0.7047979460167315 0  0.7397563856937437 -0.6314066956663587 0  0.8011649778863865 -0.5501737138317223 0  0.8540976712908881 -0.4614997995249731 0  0.8969181375574353 -0.3671991995759215 0  0.9288006368749017 -0.2684964823394866 0  0.9492467528813228 -0.1664689690599479 0  0.957979547443756 -0.06295593099088749 0  0.9549757482076129 0.04089363274096111 0  0.9402494999129954 0.1436578252297533 0  0.9141413703490406 0.2443301578062274 0  0.8770344837195247 0.3411472049666772 0  0.8295928308581678 0.4332513279359377 0  0.7720514438739926 0.5197492901246765 0  0.7053545358095142 0.5993769150560855 0  0.6304691462174026 0.67126321208884 0  0.5480668147555605 0.7348152200081811 0  0.4594757676988095 0.7889574505824305 0  0.3655527582349314 0.8333394988015829 0  0.2674464493598525 0.8675309762369323 0  0.166034442758766 0.8909419312283962 0  0.06276438172072431 0.9033623488278889 0  -0.04121333538972627 0.9042923802810993 0  -0.1448435000704007 0.8941059200717306 0  -0.2467588922969655 0.8729491574463105 0  -0.3456283131824483 0.8410082582371841 0  -0.4406217351968367 0.7987009097121156 0  -0.5303325412842015 0.7465325305709303 0  -0.6141265490691312 0.6848932585634206 0  -0.6907411518639089 0.6146363283051403 0  -0.7591375966497982 0.536625312364876 0  -0.8185604987168513 0.4516250248454322 0  -0.8683782619434225 0.3605592449600976 0  -0.9075685268362449 0.2645400056643569 0  -0.9359728843958034 0.1646743984763881 0  -0.9530548062987705 0.06217240102386044 0  1.972287407300427 4.156874152756856e-07 0  1.962168185410779 0.1995324819074905 0  1.931914959295427 0.3970180893366099 0  1.881837347686621 0.5904293056671883 0  1.812446814304906 0.7777880337060807 0  1.724485052693387 0.9571122839971538 0  1.618774490961011 1.126700354120083 0  1.496457461913011 1.284728304819579 0  1.358841426855629 1.42949960845166 0  1.207284748063904 1.55960760266895 0  1.043220391081995 1.673798666065873 0  0.8686335932474376 1.770702222735807 0  0.684933020719342 1.849534418195523 0  0.4944127969584352 1.909310546863563 0  0.298613352739602 1.949549944662951 0  0.09989485749360835 1.969756579649528 0  -0.09984830261262505 1.969757306644494 0  -0.2987055255617418 1.949535536831941 0  -0.4943589950501827 1.909326755896932 0  -0.6849414011872517 1.849532008847522 0  -0.8686266739850188 1.770706036467222 0  -1.043263862255185 1.673774771757762 0  -1.207255104058228 1.559633165941956 0  -1.358805007532434 1.429531487877714 0  -1.496524549332937 1.284649176679341 0  -1.618747334779852 1.126750188824629 0  -1.72445755122958 0.9571512810837345 0  -1.812466242127424 0.7777388379099475 0  -1.881836599456662 0.590429365088155 0  -1.931903041308304 0.397063809093683 0  -1.962170687258594 0.1994854694809006 0  -1.972286717376326 -1.208049086135381e-07 0  -1.962170311884701 -0.1994870569423946 0  -1.931902257064148 -0.3970652097000004 0  -1.881837933682968 -0.5904244270419454 0  -1.812448414265921 -0.7777838370827013 0  -1.724462790073154 -0.9571547205298049 0  -1.618781287367018 -1.126705276274562 0  -1.496489363100138 -1.284693868187981 0  -1.358841466952981 -1.429499685365352 0  -1.207244032067917 -1.559640858236353 0  -1.043309305432552 -1.673743165388143 0  -0.8685801063123368 -1.770721274642771 0  -0.6849396560019527 -1.849531974865906 0  -0.494364806881139 -1.909325341181165 0  -0.2986591396108466 -1.949544589442849 0  -0.09988879313626214 -1.969756609347475 0  0.09984666607837349 -1.969757012327666 0  0.2986576937861506 -1.949536141351937 0  0.4944130590601767 -1.909310104676412 0  0.6849325985943577 -1.849534118818778 0  0.8686257288717913 -1.770706109903752 0  1.043264319740661 -1.673773779697531 0  1.207249318702071 -1.559637558940835 0  1.35884504604344 -1.429495548699359 0  1.496456179937439 -1.284728618183578 0  1.618774077592491 -1.126699645396241 0  1.724487734374212 -0.9571037591950723 0  1.812423571155394 -0.7778340435251879 0  1.88183010246331 -0.5904288459433868 0  1.931921814982482 -0.3969712176644462 0  1.962166985657943 -0.1995393332333706 0  0.001410214923673145 -0.02692598105801533 0  -0.1459845101330656 1.432562645965427 0  0.4906474550459698 1.35196182985838 0  -0.7029185416664939 1.262846408004566 0  1.029877684557165 1.015808448083866 0  -1.151015612224756 0.8870960934968134 0  1.375685881762903 0.4804732783303666 0  -1.415943361343542 0.3602611147923025 0  1.467490196085351 -0.07831618200356984 0  -1.453588026812254 -0.22638638580994 0  0.5808498543797055 -1.356722450173933 0  1.322844183934653 -0.652050223127045 0  -0.1694594185535545 -1.464008818181664 0  -1.279257371909697 -0.7236830982826439 0  -0.7155652204341175 -1.292263562760785 0  0.9978151266083268 -1.085139762142122 0  -0.4747730025792037 -0.1062213695591513 0  0.4807350592949206 -0.06953452385939669 0  -0.2934587704844439 0.3407485722190579 0  0.274040652066491 0.3550598532398567 0  0.1984267874444471 -0.4550313732073094 0  -0.9686519958165992 -0.9806868659912833 0  -0.2370036724125658 -0.4724908314208944 0  0.225823221879922 -1.550469436130241 0  1.371226194795887 0.8516962109107814 0  1.076959396601003 0.6745608975747273 0  0.1969750046677152 1.588085727186125 0  0.1560523879618864 1.239941187606932 0  -0.4874054147608694 1.550918393104826 0  -1.059252137750021 1.234129163372436 0  -1.462410357510125 0.715130965485285 0  -1.629238126271803 0.08096867040014556 0  1.58014230183743 -0.411421798406087 0  0.9396797842344446 1.347455504852308 0  1.618516861386462 0.2350559941854344 0  -0.4921412636714685 -1.570230613335779 0  0.008488788457449192 0.5698400783526578 0  0.6822036005478906 1.057610667670352 0  -1.035187499026304 -1.291897908564353 0  1.314647528366023 -1.018633835511356 0  -0.591997002099765 0.1941921612582067 0  0.517721349122215 -0.3921915623260588 0  -1.554916179891919 -0.5392651628522378 0  -1.28543489786734 -1.043340320472894 0  0.2913437708877436 -1.248516168938083 0  0.5750673439959881 0.2356837734901987 0  -0.3942844810369314 1.161024174690303 0  -1.142381340412221 0.5512569346985317 0  1.252993930627247 -0.3317597782494806 0  0.9626044533314196 -1.383865621579683 0  -1.308973549807223 0.0570667698034013 0  -0.8211633924048565 0.947591643647643 0  -0.5463856138325703 -0.3969424825202318 0  -0.4049223293647485 -1.221193779396384 0  1.248453579666248 0.138170833478539 0  -0.01154489994919575 -0.6690237727445664 0  1.024746947437845 -0.7726965638065818 0  0.7165616237638708 1.528392017925478 0  -0.008033809923929817 0.283016751914727 0  0.4982220064757037 -1.626995202264475 0  -1.207352657938405 -0.4219391694447502 0  0.6921777209790262 -1.075386738668083 0  1.285347443968039 1.112034322830714 0  -0.1228578638559547 1.162862634296439 0  -0.1736418143455499 1.705808244404911 0  0.4027186857171769 1.098224277207434 0  -0.8966836252689518 1.449080438033896 0  0.01389936801168108 -1.25214576441691 0  8.812061222737486e-06 -1.711256472020239 0  0.8471083985733888 0.822932850623495 0  1.567496118569903 0.6696333891142247 0  -1.401604005692123 0.9745465139356939 0  0.4658283406623452 1.637966011026311 0  -1.630763061449733 0.5138759613247144 0  1.132843324488524 0.3847805387303829 0  -1.166024041904914 0.2856998351935307 0  1.703898279557765 -0.1836394764974605 0  -0.9511710148215679 0.7241810373086272 0  -0.7024610559377107 -1.024579369183355 0  -1.689066874756162 -0.3232076868958822 0  -0.2534577027284717 0.5980049893723242 0  -0.02580398502955176 -0.2983515745998491 0  1.580902611339842 -0.6671634084824867 0  0.7604200655481328 -1.539756492962294 0  -0.8412450088300736 -1.516384756318713 0  -0.2724873278664532 -1.697192661246133 0  -1.48142770641645 -0.8802444626615428 0  -1.007696403236399 -0.7168186024815899 0  1.196584852624404 -1.239103528269556 0  1.098302929044467 -0.5328076283146879 0  -0.7103501001803133 -0.02798302009985006 0  0.3104201861918588 0.5958584229244805 0  0.7184967781707098 -0.01577324962716518 0  -0.2244473264277637 -0.1425558089152027 0  -0.2107917017718994 0.1063367208130618 0  -1.208273201339902 -0.1730985945385083 0  -0.5236463606839084 0.4333136407335503 0  0.3938931826717331 -0.6059246071962799 0  0.3227183738650191 -0.2492211255916731 0  0.2520961745049074 0.08417845027992038 0  -0.6037647003804056 1.04616220482204 0  1.23071341776679 -0.09776235018072038 0  0.8482572301432356 -0.9138821350273393 0  0.7149261520924156 1.297481601230395 0  -0.4317630145912424 -0.5999917568184946 0  0.4834443025634079 0.4453387611647462 0  -1.282946216999529 1.217717379927576 0  1.504247709757375 -0.8852144148325628 0  -0.6984465540012571 1.625921804708868 0  1.712000178484852 0.4413966267541987 0  0.4651133247205952 -1.102698023482761 0  -1.768703363478126 -0.09131278219209399 0  -1.752167890310947 0.2666175673186101 0  -0.2335841161296973 -0.7067976385586623 0  0.6410285708856953 -0.2166852384748676 0  1.165283205778857 1.308030056943116 0  1.65698819184065 0.02466435713014211 0  -0.1
[...]
<PointData  Scalars="f_1123-1"> 
<DataArray  type="Float64"  Name="f_1123-1"  format="ascii">3.8393980139956213e-01  3.8996927554554106e-01  3.7701259101017948e-01  3.9207064694438720e-01  3.9077373222130729e-01  4.1798312158208206e-01  4.5810692716478024e-01  4.6741189223484003e-01  5.1287077578400231e-01  5.0168697803055862e-01  4.8281586093245249e-01  5.0603088239938565e-01  5.0757513480083916e-01  5.0025022585281431e-01  5.0866690621197652e-01  4.9395565287578042e-01  5.0007443007393904e-01  5.0636068501278575e-01  4.9593725497288260e-01  5.0133121544772330e-01  5.0520240976174025e-01  5.0795378795347312e-01  4.7679998754253583e-01  4.6727601499800109e-01  4.0038687308738852e-01  3.8272915227998827e-01  4.0198550247766918e-01  3.7876440017361979e-01  3.8253981951983268e-01  3.9905702368602813e-01  3.9031865837748064e-01  3.7320021524928515e-01  4.0646350176441115e-01  4.0739185022722441e-01  4.2161876085739664e-01  4.0403904134961027e-01  4.2488668108802796e-01  4.2312229192022288e-01  4.1258696807261025e-01  4.3015358078411958e-01  4.1834303398546441e-01  4.4143159890343259e-01  4.0779110687486914e-01  4.3082577439374120e-01  4.2121074565690908e-01  4.3003979812082643e-01  4.2597877087446506e-01  4.2323055460904502e-01  4.2241309270003219e-01  4.1809470340576327e-01  4.2440659247665086e-01  4.1342950866833705e-01  4.2332971657360940e-01  3.9878420374802698e-01  4.1029152175817113e-01  4.0651574064727658e-01  3.9991028690572011e-01  3.9687279971531370e-01  -1.0312587371425715e-02  -6.3567985888941256e-03  9.5570386097650073e-04  -2.9647194371360648e-04  1.0446298713729882e-02  2.1332344833342343e-02  -7.2204767526633767e-02  1.9950111129236968e-02  3.2834380203425502e-02  2.3390137561677446e-02  3.0253136820961500e-02  3.3828201772249988e-02  3.4576786678104279e-02  3.0589848690512362e-02  4.7675955888027546e-02  4.4468392386632645e-02  3.6636932495602841e-02  3.9734898792545235e-02  4.3818727458964049e-02  3.3940661420929996e-02  3.0630915834902211e-02  4.0831502279879583e-02  3.4085167191330652e-02  2.1034524164418245e-02  1.7018212719908159e-02  1.2088931286946285e-02  -4.7319270107278478e-03  1.2550401879967490e-02  3.5714868777441174e-03  -1.0809311330846899e-02  -1.7016296882840828e-02  -1.2488366731553274e-02  -2.8711475253320885e-02  -2.4336942304380764e-02  -1.7706423462805577e-02  -1.5454076083708759e-02  -1.1163257714496411e-02  -5.8142764215361074e-03  4.1396412468945537e-03  6.7147351452995210e-03  1.2727419786318627e-02  1.1748244453086542e-02  -5.8147590715123730e-02  1.5207279594799247e-02  3.2166236989715054e-02  2.5043952144909603e-02  2.4417528483447765e-02  2.7099438035052350e-02  -4.0013932425128511e-02  1.6465736189108873e-02  1.6523515457866466e-02  1.4654945381958866e-02  2.4820501411798524e-02  1.3023469248977007e-02  6.5854834657725035e-03  -5.3989182445644832e-03  -9.0997048499887170e-02  -2.1243759239400126e-02  -2.7865741212072040e-02  -2.3799853709358748e-02  -1.6057786906498839e-02  -1.5837710823889874e-02  9.2409802907563532e-01  9.1502322324966232e-02  8.8128081065744907e-02  8.5584559796189688e-02  7.5738306956938867e-02  7.0644950269924262e-02  5.4053348952847892e-02  4.9542980208795377e-02  3.5540420721002289e-02  3.2024610584577853e-02  7.2613340029436924e-02  3.4629826343851249e-02  7.6758070336271272e-02  3.8006472567701115e-02  7.0705879841999095e-02  5.9934937741099967e-02  9.1354015603204908e-01  9.0982225543235051e-01  8.8596587928055404e-01  8.8682295611706219e-01  9.8311032635159079e-01  5.9263915240273621e-02  9.8524720392169673e-01  7.4307106457615624e-02  6.4506122040627958e-02  6.2755371193293261e-02  8.9419606655726430e-02  8.6003875182008360e-02  8.7802812833863805e-02  7.7482661279026546e-02  5.8328093547879017e-02  3.8140591330877043e-02  3.0615975434960016e-02  7.9817222208953945e-02  4.2503818266010018e-02  7.1208984435430833e-02  8.7634172089179974e-01  8.3976272474550126e-02  5.9041680041526441e-02  4.4179295109321039e-02  8.8048742021014259e-01  9.4331750386960400e-01  3.0685140518655566e-02  4.6356281067787851e-02  7.9845926491450267e-02  8.7868476362805792e-01  8.5912994088145483e-02  5.9510583417693087e-02  3.0694405916923382e-02  6.0992918054943265e-02  3.9397092672696352e-02  8.2409322632892662e-02  9.4278297490755214e-01  7.7881581929353461e-02  4.1964618540184538e-02  1.0173728020521156e+00  4.3266648694971280e-02  8.3190635073957755e-02  8.9559214393934961e-01  6.8684269446357041e-02  3.6382154521912881e-02  7.8809762073058676e-02  6.9411213464723107e-02  1.0283006461691807e-01  8.7570844820895527e-02  9.7859059268719059e-02  8.0249506501859705e-02  8.6487884318410105e-02  7.0611987678117466e-02  7.7673114896413584e-02  5.3850691067739848e-02  6.3959012393316014e-02  8.5022418540015104e-02  4.7877874165342581e-02  5.5106265420195949e-02  5.1349303834399555e-02  2.9952768331295385e-02  7.6094722597009071e-02  8.4952242453310539e-02  2.8208306719479010e-02  8.5288493804821930e-01  9.5959872452012707e-01  2.9067567589882007e-02  6.4907086105883527e-02  6.3530957532103499e-02  6.9826147853579212e-02  3.5097698856911823e-02  5.1749219274755523e-02  5.1079447439151736e-02  2.9777969551566190e-02  8.6357528211147405e-01  8.4760842634415923e-01  8.5944882891904040e-01  9.3410649473673413e-01  9.0763918521242304e-01  4.3352562189510925e-02  8.5415888249848404e-01  9.9048424544237235e-01  9.4447577911371017e-01  9.0826295579261118e-01  9.1250517739824039e-02  3.8150027662274121e-02  7.5571406419428111e-02  8.4932388663593039e-02  9.8795014398229442e-01  8.6204118634396265e-01  6.9335662985179430e-02  3.3791093597574227e-02  8.2126084285876436e-02  4.3550815298211150e-02  9.9221428203923240e-02  2.8850949024629147e-02  3.8132591593854563e-02  9.9180078213723555e-01  8.9872237432698898e-01  7.2622838220493008e-02  3.6305816070094997e-02  8.6225266866304412e-02  1.0042519102413698e+00  9.4643236907769868e-01  6.8896921030870278e-02  8.6503622944285441e-01  6.7715602809234068e-02  7.4419475053918063e-02  7.7156450476612126e-02  9.5129900322309641e-02  6.5903931495925230e-02  4.7192565987134213e-02  8.8422511612970739e-02  8.5975371033383693e-02  4.8142867479213557e-02  9.0105165916159802e-01  9.4124693892071420e-01  8.0231343663753410e-02  5.5701752849722133e-02  4.5954620249229236e-02  8.3291789099334643e-02  7.0690713369239086e-02  4.9879803079112862e-02  8.8353992622842215e-01  9.0936718037802802e-02  8.2671720046772035e-02  8.9160250479217731e-02  7.7071037107033696e-02  8.1780284783245560e-02  8.9607885397172057e-02  6.0069501960158041e-02  6.2186970784604660e-02  5.5447663017930388e-02  9.8741823211757074e-01  6.4701538420683880e-02  3.9931867093854309e-02  9.0392739278869080e-02  3.1646247338051013e-02  8.6733295913658637e-02  8.1596634498321871e-02  8.5063409206698165e-02  8.2122185260275182e-01  8.9840404903501522e-02  8.3332935206098169e-01  1.4749954699299486e-01  5.6198857392591881e-02  6.2693277529202007e-02  7.1828725568369445e-02  7.7349798377949447e-02  8.9655824378170457e-01  7.4664936691044154e-02  7.3689999006827281e-02  1.2018140954419960e-01  5.8771582247663191e-02  4.9253001551753953e-02  3.4895077077647767e-02  5.6054484834341028e-02  3.8994682145257878e-02  7.0850464838694560e-02  3.2614870417979044e-02  3.2563094255112848e-02  5.4970439324950056e-02  3.4671322255351515e-02  4.3257809180353310e-02  8.8841029237963109e-02  3.7029338307757592e-02  2.3959765368426596e-02  2.3458659256548366e-02  2.3026069048751062e-02  3.1844466409104447e-02  3.1229933085101257e-02  1.3968925540927291e-01  1.3053179721114028e-01  1.1486955581173872e-01  8.6115800730308764e-02  3.4331947612542310e-02  4.5244878621692228e-02  8.0969901006327683e-01  1.1201246813518929e-01  7.2580892522028248e-02  8.1727961605808264e-01  2.7067042273442563e-02  1.2448865894635078e-01  8.1125307125151502e-01  8.3530887729118541e-01  9.3272073006543876e-01  3.9030980571216213e-02  6.5598915189931273e-02  7.2338905770665332e-02  4.8590012496158540e-02  6.4214803553812899e-02  7.3989502354076989e-02  9.2480952608829015e-01  6.9787151715127893e-02  8.8550988072102932e-01  8.2617888481686907e-01  1.0933222583906332e-01  6.4129677607859162e-02  7.7510137709199234e-02  3.0505488258913280e-02  3.1183590702607733e-02  7.6602019833462320e-02  8.8371465949399663e-01  2.2339406159867067e-02  7.5020532542651799e-02  1.4375406344462313e-01  9.5813298849899065e-01  2.8267341323281108e-02  3.1716385243368395e-02  8.2642917247961897e-02  9.7061474231867761e-01  4.2121904367359117e-02  7.6842298219655839e-02  8.9838980999026119e-01  9.6609292816403236e-01  4.6204610323800202e-02  8.4652675439654393e-02  6.7591677691477142e-02  1.4547101882088431e-01  4.0503903022250320e-02  2.5855945914562611e-02  2.6468949206077633e-02  6.3031493051723564e-02  9.2264267371653719e-02  1.3662357207398729e-01  6.5005231846573933e-02  8.0375558022945007e-02  7.9386504939523206e-02  3.5015948521723003e-02  4.0233515285671567e-02  8.8711323556319255e-01  9.0540708461885211e-01  9.5505652935678287e-01  1.2875723690228311e-01  6.6229222379396574e-02  9.2748786607425149e-01  4.9191309483008351e-02  9.7256835233504046e-01  1.3912556187258612e-01  3.2048106941901695e-02  1.4375332146305345e-01  3.8215602711614796e-02  6.2550008900454354e-02  6.5270842312694019e-02  3.1397391668492480e-02  4.5315631181432031e-02  4.9742944541286756e-02  8.9415340750319428e-01  8.1471683858594865e-02  1.3264534543456186e-01  9.1797870821638344e-02  7.9301704158434139e-01  7.7029045523935635e-01  8.7258825153777608e-01  7.4396915486566503e-02  5.0817259766386104e-02  7.6805761027856786e-02  5.9269169377244864e-02  9.0836466657497383e-01  9.8868886385708316e-02  1.0420083652975592e-01  8.6416317972002679e-02  7.6971134760380644e-02  1.6847283277618175e-01  8.9019123598644079e-01  9.2647082852272156e-01  7.5532104502817596e-02  5.1639072035035281e-02  3.4781055732279034e-02  9.1698147066260838e-01  6.7834047079339280e-02  9.1143033323606437e-01  6.3807644369241037e-02  5.4856893070970192e-02  4.2805495288011419e-02  1.4652203275373740e-01  1.0050254124818345e+00  8.2005685971433062e-01  6.3823435621683924e-02  7.3691182070162717e-02  3.7996346654344614e-02  7.5977956811140446e-01  2.4059589679673601e-02  8.3814444212273478e-02  9.1833974607468094e-01  9.0196408246549578e-02  6.6948452714508666e-02  7.4173421590236432e-02  1.5538811304663827e-01  8.9344954881100869e-01  5.2490625044464521e-02  3.6142104935805691e-02  8.7224399430302091e-01  8.6404949456375876e-02  8.2942912871085545e-02  8.7589671819922943e-02  9.5909058308856621e-01  6.2417781754637948e-02  7.1787746509311676e-02  7.2334394272501726e-02  3.0836689711114959e-02  5.6873967069371034e-02  1.7292333662471518e-01  7.9487377015388480e-02  8.9537656510351704e-01  7.5626924260980299e-01  6.5101520017732853e-02  7.4191238114098626e-02  7.4021417384300081e-01  8.9695317017393833e-02  5.0361542783977149e-02  9.1291060668534388e-02  5.7905226428602533e-02  8.1565149566013059e-02  8.3356063439963518e-02  9.4071521133593250e-01  9.7573099848500866e-01  7.6644524221186658e-02  7.4809057764183950e-02  7.4243498068860811e-02  7.9722792554862545e-02  8.7946173258033680e-02  1.4524323625326446e-01  9.7120855746863244e-02  1.6950970585322256e-01  6.9926858846071180e-02  1.2615149119417754e-01  -1.1688604895205120e-02  1.5422857499333517e-01  6.2851973405067624e-02  8.9936871577750405e-02  1.4260947429324175e-01  9.2436389496714744e-01  9.2341555830275604e-02  7.2277031875918984e-01  7.6500599785579915e-01  1.5296776052637662e-01  1.7870088599221449e-02  3.9879874763752501e-02  5.0850419310657750e-02  3.5637450935362872e-02  8.7887218930166100e-02  1.7167232316543082e-01  5.9961532135320419e-02  5.0605077599053368e-02  8.9359072980760446e-01  6.6185492504659937e-02  6.7267659958684556e-02  9.9504867916272263e-02  7.7134267623682862e-02  5.7844925269368332e-02  6.3943886697713392e-02  8.9735312996950353e-02  2.3631721576319178e-02  -9.4503399161742861e-03  1.6564279234339806e-02  1.6103160952029649e-01  4.4451344438697617e-02  5.3573990934072765e-02  9.0375152478622101e-02  5.9414306931350379e-02  9.1498279298919050e-01  8.6916246643743866e-01  1.0867893994453572e-01  8.9541355141623025e-01  -1.0347228600813791e-02  2.3168543323995736e-02  7.2537335475615428e-01  5.2144622535149385e-02  7.1077009285708148e-02  2.4092339354313878e-02  7.5104032864536305e-02  1.0022522743465403e+00  8.3648194327509279e-02  3.4270040365284006e-02  9.4862668475714645e-02  8.6154465664399593e-01  6.0040315164809871e-02  5.4709080764304072e-02  5.5284878446525999e-02  6.9786504381377887e-02  9.1073398306100195e-01  6.4909209831264011e-02  3.9471000316224109e-02  7.1256112927573736e-02  3.8828251814593318e-02  7.1614448055316693e-01  2.8849444422456183e-02  3.2120739236133726e-02  9.4682309893922301e-01  9.2202599650044648e-01  3.1800693895419334e-02  2.9463465354830312e-02  8.5910765506109321e-02  4.2456490646530037e-02  4.0345068660105114e-02  3.7051658110274402e-02  7.7937785273128848e-02  4.9608052525338175e-02  1.2111572799928502e-01  9.2932426648869793e-01  7.5437814261550906e-01  8.6643238768420047e-02  3.0112187801957103e-02  1.4032005683215404e-01  9.7077461167097390e-01  2.9709753024764488e-02  6.0008283823393932e-02  8.8063755660781273e-01  9.9128160206364824e-01  9.8230412664998978e-01  8.3838527080486849e-02  6.8067350263166418e-02  5.2990172411345973e-02  7.1449888112820914e-01  8.7845516541010860e-01  8.7062780239595516e-02  7.1070933989479401e-01  8.9154053994031013e-01  4.0237516529555498e-02  7.9173142660567519e-02  8.2149613637513641e-01  1.6238355133180760e-01  5.9503305496399699e-02  3.1886371816088235e-02  7.1205953897107849e-02  4.5028905593827530e-02  6.1680085481500987e-02  5.6990939823244068e-02  8.4533084509678613e-02  9.2614701366001329e-01  4.6382950734114470e-02  1.4464247608246433e-01  8.2017166033171232e-02  2.3850635606984485e-02  8.7103584287319880e-01  7.1173413463653790e-01  6.6316325333911852e-02  7.4846840097541251e-02  3.2392595443243341e-02  9.1033525020420641e-02  8.9034898453944605e-02  8.3999540493220026e-01  3.9193482135267819e-02  8.6363904766566069e-01  7.1179766580000151e-02  3.7712039372800529e-02  5.0870965097506271e-02  8.1623250415568380e-02  8.5550104993345910e-01  7.9388385396354122e-02  8.6517562083629054e-02  9.8819875744679564e-01  8.9505604226837357e-02  7.5952332040485640e-02  7.6816151246433526e-02  3.8407240214071950e-02  2.3976694809660942e-02  1.3919791055005062e-01  8.2534921912475009e-02  8.6707865806644177e-02  2.0050943820990957e-01  8.8730947482089451e-01  8.4888365685667780e-02  7.0699528809904169e-02  7.7240182951878095e-02  7.2253643739410067e-02  3.4503375105654439e-02  8.7431645884703299e-02  8.1445282721629608e-01  6.8402068342322653e-01  4.2063551772186326e-02  2.0154781670667088e-02  8.7539031467599715e-01  8.6437618055829302e-01  8.8102762609459262e-01  3.8867982251013400e-02  8.2428327254237585e-02  8.3342217173805938e-02  6.8310166044713724e-02  9.6563813655537833e-01  5.6747262745200915e-02  4.5026310280845229e-02  1.3097187860784779e-01  1.9888528160223182e-01  6.8151892947492645e-02  3.1216504087337126e-02  1.9103687629947408e-01  6.0693540177274408e-02  7.5134180876926929e-02  7.2971902567455948e-02  1.8119639597285597e-01  4.0854017808647752e-02  4.3968665191279684e-02  3.4524583184641917e-02  9.7243523022353662e-01  8.3405363232160312e-01  6.3482359478408038e-02  6.6312765182925948e-02  7.3516155578196324e-02  6.2778096728156901e-02  4.9670116728009236e-02  6.9386442577632734e-01  7.6382951147951003e-02  7.6722470842219101e-02  7.7908352408523354e-02  8.7528990392516312e-02  9.0314496750333528e-01  6.9325561909393638e-02  8.9050547333321017e-02  7.3212984420128435e-01  3.3443161610247255e-02  2.4400623851320597e-02  2.3101021949133639e-02  8.1149071939510820e-02  6.8330547163579794e-02  7.2018588920840912e-02  8.1942496446803947e-01  9.4954994056089026e-01  3.0763968146186364e-02  3.0618827270624597e-02  3.3947402121886683e-02  3.8461922173849389e-02  7.2165900576537961e-02  4.9865400775120701e-02  6.3729291385022035e-02  4.9622820109357403e-02  9.0126368542624435e-01  6.9830659803783363e-02  4.3752199186311819e-02  9.0570007437887901e-02  3.1538625362200756e-02  8.2110610108718868e-02  6.5705282350885541e-01  6.6041094607470208e-02  2.9540045890031751e-02  6.8025490508804975e-01  6.2522759634803235e-02  7.9584080311621175e-02  7.5512128319217708e-01  6.1333381156506578e-02  5.7412349308446770e-02  6.7790324009562655e-02  8.0911748022378480e-02  9.2385403738358884e-01  8.7829350568702239e-02  1.0045813799873335e+00  1.5824582382071475e-01  4.3765068079118993e-02  7.6575126900693610e-02  1.7807982144423712e-01  3.4228609334889096e-02  8.7984813919067528e-01  7.1912239038592424e-02  8.2737060491695935e-01  4.8758668905144187e-02  3.1132382333012083e-02  7.2014211135680378e-02  3.7524166835316460e-02  8.3953247383931118e-02  5.5296161859187364e-02  6.9031965878711285e-02  7.0290735804172499e-02  6.5332538168284437e-02  4.3652716921503361e-02  5.4789944536624051e-02  4.5970793188048677e-02  6.6501598841248999e-01  6.5504196158866893e-02  8.4461525382553401e-02  7.5231588785547740e-02  8.9746529640285122e-02  8.2278253617397198e-02  7.9186943523533393e-02  5.2390394689239048e-02  8.7908279425634395e-02  6.7498683438782472e-02  6.2578296369430381e-02  1.7425584204140257e-01  7.8153237379792939e-01  5.6000714157182899e-02  4.4319338436665412e-02  8.3547501831823401e-01  1.0116711494618000e+00  1.0000122337986856e+00  1.3750344847454962e-01  6.7988584008813843e-02  9.9093871855462159e-02  8.7438518476010119e-01  9.0400390254553348e-02  1.8242986114186424e-01  6.0083754306134898e-02  7.8577290754917040e-02  8.2455035766084553e-02  8.0478316552964863e-02  5.8371361021471148e-02  9.1573442895176410e-02  9.0545320330814430e-02  7.2268459242221206e-01  7.5661763338447485e-02  5.7587117638302425e-02  2.0778101481199185e-01  5.4167754007125771e-02  7.2149692013873681e-02  8.9256131314358111e-02  4.6072022465940068e-02  2.6963785255395580e-02  3.2439773664965137e-02  7.0233613796629166e-02  5.1840340758623218e-02  4.2311095525845201e-02  1.5445893073802813e-02  6.6592728351023381e-02  4.6672138784107725e-02  9.2936564192472770e-01  6.3200328740348977e-02  9.4331072965602025e-01  9.5144075917048621e-01  8.9310610932099677e-01  9.0815432622142211e-01  9.0436901260287328e-01  1.9799092115239059e-01  8.3236164109977029e-02  2.3508597511771746e-02  4.5010470210397981e-02  6.1604394975447313e-02  5.8348501974549806e-02  6.4842057701162817e-02  2.9445995026626526e-02  4.4960373457140261e-02  8.0494399386183291e-01  2.5550383496576973e-01  9.7447809202847596e-02  3.3671566112484654e-02  8.7384123870422070e-01  7.5077398365678727e-02  7.3643312233849567e-02  7.4133921894241672e-02  7.5102254130641602e-02  5.2981127092904964e-02  5.6354818447310523e-02  5.4851229246657078e-02  9.5519817344450186e-01  7.3900069207635116e-02  2.1269694620701177e-01  5.6344566099088340e-02  5.5138409866284675e-02  8.0232783767257676e-02  9.3142178594180924e-01  9.4405061666612233e-01  6.7263359382554774e-02  2.4523689225763792e-01  </DataArray> 
</PointData> 
</Piece>
</UnstructuredGrid>
</VTKFile>