<?xml version="1.0"?>
<VTKFile type="UnstructuredGrid"  version="0.1"  >
<UnstructuredGrid>
<Piece  NumberOfPoints="821" NumberOfCells="1550">
<Points>
<DataArray  type="Float64"  NumberOfComponents="3"  format="ascii">-0.9438893880899131 0.01301963784731456 0  -0.9462515729440208 -0.09072400141084212 0  -0.9369746583826897 -0.1944100599957385 0  -0.9159342376471339 -0.2963131806936959 0  -0.8837807586982938 -0.3946115531366622 0  -0.8410311342826051 -0.4881263480658711 0  -0.7890944963473489 -0.5752043663140044 0  -0.7295583305157065 -0.6544886698369692 0  -0.6625564365862239 -0.7262547396814469 0  -0.5889148616959269 -0.7901745761088853 0  -0.5096432703523605 -0.8458774070062027 0  -0.4252092924103916 -0.8934272580033351 0  -0.3362806326997034 -0.9320998479354674 0  -0.244898049408724 -0.9612810299798519 0  -0.1502659935739917 -0.9814004302334343 0  -0.05405276760576802 -0.9918615916340742 0  0.04269509576803155 -0.9925617998272366 0  0.1389211388231799 -0.9833323157769727 0  0.2340614337416549 -0.9644246948881382 0  0.3265366141711294 -0.9360766488168487 0  0.4154483720494418 -0.8986145803651034 0  0.5005366935678057 -0.8520995892860792 0  0.580349505252601 -0.7972978469217442 0  0.6542374741576161 -0.7346382461683842 0  0.7220855568270304 -0.6638756012236138 0  0.7826464833375852 -0.5853227303398023 0  0.8356473779388847 -0.4988252026320213 0  0.8792187459939416 -0.4064877966536528 0  0.9128777651474825 -0.3083923065731242 0  0.9352587609840559 -0.2068020041303433 0  0.9459803214427178 -0.103526558941828 0  0.9449008882008069 0.0006967197164512648 0  0.9321114417924008 0.104142868996791 0  0.9077921226825953 0.2055512604855951 0  0.8724721450072395 0.3032425775870742 0  0.8263212245096215 0.3967967348989835 0  0.7696993067379122 0.4849684166538278 0  0.7037986420607609 0.5659558440644309 0  0.6292837984322647 0.6392466086863616 0  0.5472192137874702 0.7039541218111199 0  0.458327557193299 0.7593441929022421 0  0.3642588215846948 0.8043113458771568 0  0.2653913653328324 0.8391347249217626 0  0.1629907628051675 0.8629037406695463 0  0.05892971430177955 0.8751475722158099 0  -0.04582834586970996 0.8757158104810328 0  -0.1506659645023471 0.8648309734018222 0  -0.2528812299391613 0.8425862265705696 0  -0.3519860695709196 0.8092998405167899 0  -0.4470922798483629 0.765261533927853 0  -0.5367930067021495 0.7109321916937605 0  -0.6194513386291648 0.6475992229771314 0  -0.694834561594861 0.5755399014468613 0  -0.7620798444702975 0.4951166455727083 0  -0.819843441073451 0.4078621039591233 0  -0.8672409630865086 0.3153693340935811 0  -0.9042996547275963 0.217204982235275 0  -0.9299040790926005 0.1161916563660579 0  -1.92605780884808 0.09614383631407768 0  -1.926058147158723 -0.09614635583835822 0  -1.90693074890962 -0.2872837257891018 0  -1.868799280324988 -0.4758532507196981 0  -1.812131743059637 -0.6595657912062358 0  -1.737413649409527 -0.8368466921208493 0  -1.645532567960861 -1.005564043905581 0  -1.537311976763166 -1.164300070340177 0  -1.413563847722632 -1.311778075619086 0  -1.276030692136003 -1.445920478194037 0  -1.12583192484552 -1.56570356256217 0  -0.9642163448911778 -1.670072647538055 0  -0.7930220876463744 -1.757851260766512 0  -0.6142038274406035 -1.828031723791709 0  -0.4291202671242482 -1.880108127145861 0  -0.2397910879262423 -1.913491826874075 0  -0.0480802756538329 -1.927858871498181 0  0.1441317470450638 -1.923062582682558 0  0.334735856739312 -1.899177596487361 0  0.5223006279847954 -1.856361008664567 0  0.7046708073037323 -1.795094199209318 0  0.8797672747235565 -1.716087192662175 0  1.046277238836137 -1.619955346516262 0  1.20238631669241 -1.507718436901862 0  1.34641669042481 -1.380610165192472 0  1.477263633536476 -1.239576330741182 0  1.593348695805192 -1.086328646292804 0  1.693589827576536 -0.9222804844663439 0  1.777003832218554 -0.7490697680885109 0  1.842757565196335 -0.5684135447144462 0  1.890241138212857 -0.3819830828744137 0  1.918871289798466 -0.1920131069434732 0  1.928450721507586 -0.0001372173569874472 0  1.918854298459245 0.1920087129595697 0  1.890188610949069 0.3822468283584726 0  1.842780136960281 0.5684208731869155 0  1.777074904411903 0.7489538107558955 0  1.693544156271339 0.9224072108509728 0  1.593366310690994 1.086337232878578 0  1.47736719438283 1.239481983568623 0  1.346400985248156 1.380626678609501 0  1.202494288004578 1.507621690642131 0  1.0461599838724 1.620024042052513 0  0.8797996994567335 1.716073079259785 0  0.7045435550099031 1.79515398472632 0  0.522306383495395 1.856381710065007 0  0.3348571415718608 1.899163632151444 0  0.1442518272231996 1.923050489526493 0  -0.04807531878502487 1.92783633327941 0  -0.2397915920297367 1.913474081712931 0  -0.4292796913774328 1.880065216788329 0  -0.6140318614450335 1.828083756181499 0  -0.7931447370317241 1.75778340048027 0  -0.964345577640456 1.670020587039573 0  -1.125724637322714 1.565788063189482 0  -1.275929133140729 1.44600680545778 0  -1.413643079059398 1.311668438420621 0  -1.537315999058606 1.164296888254053 0  -1.645526682618277 1.005578448170519 0  -1.737481949107348 0.8367263778836133 0  -1.812162863189572 0.6595532868998024 0  -1.86878389934916 0.475991827179815 0  -1.906931877615848 0.2872833012649027 0  0.001015778536631202 -0.03949092917771808 0  0.1729411445719657 1.392100107596075 0  -0.38321894151381 1.352576940637752 0  0.6760865859199721 1.233127253137869 0  -0.888033619890376 1.09570511279565 0  1.128382131390241 0.8561225570350147 0  -1.25536752039833 0.672393682078829 0  1.365724002863723 0.4116155790564487 0  -1.430094453647349 0.1312873532147037 0  1.439598057682323 -0.0836258016632664 0  -1.381322830030203 -0.4372525954961413 0  1.304519363242526 -0.6390221616318712 0  -0.4766574725162467 -0.08214855847874501 0  0.4772281829696097 -0.08784675650033026 0  -1.159840416398411 -0.8768643345315601 0  -0.2496931397558681 0.350237948845203 0  -0.2082901388879782 -0.4603249118141883 0  0.2714281271515766 0.3362285618839676 0  0.9468624672040523 -1.113063877986126 0  -0.7903763539172495 -1.235682410747613 0  0.4637170684860071 -1.393479506025675 0  -0.3027749065920571 -1.432601147424943 0  0.2370734367086675 -0.4656319323136801 0  0.07906339121206779 -1.391649241287456 0  -0.1200566718714944 1.586278139514687 0  -0.7293517927854518 1.412476731861637 0  -1.224842130633116 1.021441518173388 0  1.061769677227232 1.195796216450806 0  -1.526824452648735 0.4659224658568311 0  0.5149025584118697 1.525870843347787 0  -1.5904864710679 -0.1639757327607863 0  1.262940314373689 -0.974376052557005 0  1.550601849909947 -0.4021863067864777 0  0.01669653948542219 0.5537115059535143 0  -0.5600753552211082 0.2249973432892378 0  0.7938230848029386 -1.400337145465115 0  1.025336997921923 -0.7765211212667205 0  0.6386205388444659 -1.132753051629709 0  -0.5150446608616891 -0.4096065650466796 0  1.600683830917716 0.1989566075337388 0  0.5722836983466453 0.2099178554896065 0  1.47632293330354 0.7037523943361448 0  0.8022920684560122 0.9204806664209664 0  -0.5596489560207712 1.071014960603567 0  -0.09274385400911846 1.196809780609616 0  -1.142191578897557 -1.176230669197613 0  -0.5954694708922567 -1.5247538624582 0  -0.002783624141229001 -0.6812310549977546 0  1.232801131498319 -0.3347249480210951 0  -0.9483924723277665 0.7725225818799382 0  -1.2591003864992 -0.1472336402665604 0  0.5667246443028936 -0.3748853659248863 0  -1.442084143762187 -0.7376440003457069 0  0.3702267344052201 1.137581994665816 0  -1.196973721265998 0.3494675181702839 0  0.2057124750003704 -1.648306388936281 0  -0.1231777801464703 -1.653420973181715 0  1.092032676940829 0.5460728639625375 0  1.218026175523145 0.09585548896556444 0  0.8858955130145664 1.40389856719147 0  0.2088422800697943 1.661254854921615 0  -0.4889965197406793 -1.201826215244219 0  -0.3844534500200248 1.619426270508624 0  -1.121342672225931 -0.5903831770445301 0  -0.8225903389358401 -0.961732637299767 0  -1.049100360438217 1.309841806884046 0  1.373764519648485 0.9463758327153948 0  0.009602088111215918 0.3008289444439343 0  -1.506861909434764 0.7250486427370288 0  1.605702276803738 0.4894020298368116 0  -1.675459613793563 0.07539368556898945 0  -1.181728402376025 0.08751870426806414 0  -0.1261543365558711 -1.244288329353083 0  1.669521037196316 -0.18056757797256 0  0.2698657073763361 0.5797149291222443 0  0.2284877111006371 -0.1923522926303789 0  0.253727484660147 0.0725467736886057 0  -0.007983708061461 -0.2961382485661875 0  -0.2307540968301374 -0.1631340911484745 0  -0.2240382179309611 0.0953352808749168 0  -1.031116471820056 0.5343855849564699 0  -0.6997284953901107 0.01331250914191845 0  0.7124184887553848 -0.04615010660906149 0  -0.7200374310592845 0.8757688499831005 0  -1.622086054004489 -0.5050544194182639 0  -0.4716029362962545 0.4568380385579207 0  -0.2348138816730806 0.5943710503984674 0  1.078406851299768 -0.5402648910508475 0  1.53084864640596 -0.7413020344312714 0  -0.3937737662261886 -0.620485618660609 0  0.5620292468101491 0.9791050978933941 0  -0.311609180927052 1.078623552123339 0  0.4916231689010472 0.4428206966632706 0  1.179052560478579 -1.202859470681791 0  -1.336560713965968 -1.038192717704223 0  -0.950503400662924 -0.7558731043269044 0  0.2672403319237077 -1.224296573262773 0  0.4112146391350928 -0.6248581359136188 0  0.8263138582564692 -0.9069963466185845 0  -0.6797474857185158 -0.233728677657523 0  0.9340818724697244 0.722238629564989 0  -0.924637584146088 -1.436112401109772 0  -1.155560618848637 -0.3615499689079859 0  0.6287686423006196 -1.570112948949494 0  1.117852775801001 0.3084837752121294 0  0.1304402232299418 1.101861441218823 0  -0.3540914393290599 -1.661418740507008 0  0.2095160149694418 -0.6887922508631411 0  1.166798865000346 -0.1250725668823333 0  0.9979563174668132 -1.323776008123773 0  0.4160330740001782 -1.604683971560405 0  -0.6089952529047373 1.604069030117431 0  -1.699216181896626 0.3383631862583851 0  -1.434229549111411 0.972938741023582 0  1.277477791626493 1.148162029057029 0  -0.62121304119497 -1.03806026607502 0  1.291006609978411 0.
[...]
<PointData  Scalars="f_841-1"> 
<DataArray  type="Float64"  Name="f_841-1"  format="ascii">4.0738340941647794e-01  3.9985492902291409e-01  4.0519014980349743e-01  4.0472131300121822e-01  4.1985090574461142e-01  4.2412208909737081e-01  4.4789830065996550e-01  5.0006525957842052e-01  4.9407272067785180e-01  5.1350920271535483e-01  4.9646228455507257e-01  5.0691619876342708e-01  5.1909615021329081e-01  5.0266264373669489e-01  4.9894727192728988e-01  5.1951868088038411e-01  5.1477345030226995e-01  4.9876143491973429e-01  5.1924759287372468e-01  5.0058397912792874e-01  4.9551683246602551e-01  5.2137287088739170e-01  5.0485746422999922e-01  4.7410578450562485e-01  4.9965983183324619e-01  4.6022054829694359e-01  4.1830398231610411e-01  4.0456664288221467e-01  4.1010544057394066e-01  4.1432233396854656e-01  4.0791613739375360e-01  4.1896686117851500e-01  4.1837895546290310e-01  4.1507221186503729e-01  4.1483171559353343e-01  4.3420540573185512e-01  4.1096523960432990e-01  4.3125420612779536e-01  4.2685930045371823e-01  4.1289501130974304e-01  4.3623730767950458e-01  4.3027784860900764e-01  4.4169082848985419e-01  4.2159393373836201e-01  4.4397373624865560e-01  4.3223338367358544e-01  4.3256016210621789e-01  4.3941630086186134e-01  4.2150506164584672e-01  4.2838724398918188e-01  4.2868218485741172e-01  4.2712994951775840e-01  4.3751855205721507e-01  4.2013145109763178e-01  4.1317010792224396e-01  4.1910359500199901e-01  4.1306649122305339e-01  4.1734295905648233e-01  -9.3348019827097541e-03  -4.3582474600344628e-03  -2.4048835706171355e-02  -9.3852395051116727e-02  -8.9670804143721958e-02  -2.4987265998589882e-02  -1.0850134001775227e-02  -1.0153360714307546e-02  -1.8104645002488770e-03  4.4973364157140606e-03  1.4872171165097366e-03  -6.2016311472555041e-02  7.8930192223637240e-03  1.2110321345671171e-02  1.0287262993446870e-02  1.7211520527327467e-02  9.1048032115651090e-03  3.9714664260824505e-03  4.7812366679149277e-03  -7.2917147513245793e-03  2.6913186713121606e-03  1.0444351181855913e-02  9.0172936416194078e-03  1.3954676254603145e-02  -6.2936602639887739e-03  -6.4299562082105466e-02  -2.6759890781748431e-02  -9.0874018357344835e-02  -9.0427969162306707e-02  -8.8632237273490982e-02  -1.0801062391655798e-02  -1.3588213620739989e-02  -1.3915361314176410e-02  -2.7308366289913989e-02  6.2543467513457717e-04  3.5816069638550125e-03  5.1364056259085404e-03  4.3051716135776488e-03  1.7326411827895218e-02  1.4514652482738867e-02  2.1412156204093754e-02  -6.6486223067952739e-03  2.0789026571446510e-02  3.3895109443180832e-02  4.0265882778983575e-02  3.2061478356911671e-02  3.3362931207697406e-02  2.9665344647671513e-02  -3.4120785397206969e-02  2.1605769914611064e-02  2.9413694043244908e-02  2.5888196071449217e-02  1.5977733711265638e-02  2.1499027141941192e-02  3.1647615984959056e-02  1.8772472859830885e-02  -4.7440276955568267e-02  1.2382662023796382e-02  1.0723562209110346e-02  1.4433289360485043e-02  6.0820138214279368e-03  -8.1968506018987135e-03  -9.7229366632382453e-03  9.5759125623049202e-01  8.2877706060229400e-02  8.1127418625406275e-02  7.7661188959183503e-02  7.3141387862839580e-02  6.5891027469163838e-02  5.9894977534118078e-02  5.0306781600094226e-02  4.1471894288520626e-02  3.6660290113243142e-02  3.2003742194635858e-02  3.5220579657172929e-02  9.4585800125694164e-01  9.4548075529851083e-01  4.6049206493201170e-02  9.1773058360868598e-01  1.0141800537654011e+00  9.1908225844341873e-01  5.6679940849213427e-02  5.9820808007726954e-02  6.0973282823497676e-02  5.8717665437854803e-02  1.0163344657143005e+00  6.3379751749255725e-02  8.1302610378801057e-02  7.6645645208701832e-02  6.5750597588698834e-02  7.0125804385172713e-02  4.9339997041328645e-02  7.8937488263414596e-02  3.3616663601225609e-02  4.3620318988703659e-02  3.1883670200760925e-02  9.0421547907898925e-01  9.1411848471614365e-01  5.6884725565580614e-02  5.0490221813916124e-02  7.3994054604325774e-02  9.9055787346205337e-01  4.1742570654200346e-02  9.0977830154131545e-01  5.5110618531434841e-02  6.7413642150616335e-02  7.7649850317528427e-02  8.0323483294502812e-02  4.9559660118074923e-02  5.7215271363962129e-02  1.0476626503185060e+00  2.7674166303964007e-02  7.0397851994038724e-02  3.1580536058736064e-02  9.6979630053561738e-01  3.4947546254854245e-02  8.4109898769159655e-02  5.4675628478124919e-02  5.5650115689235835e-02  5.6183801031834853e-02  6.5398111869626907e-02  4.2817889434996682e-02  7.2774145902325255e-02  7.8951634994098380e-02  6.4377696164395481e-02  7.8130612729610707e-02  3.7875848085236058e-02  7.3648952095629897e-02  6.9478696224343273e-02  6.0259836694464483e-02  9.2494185696861353e-01  5.3613063517146939e-02  4.7178115938883852e-02  3.5738273269038820e-02  4.6295068220133018e-02  7.5355824230762258e-02  3.1411408006189891e-02  8.8478220250558270e-01  9.7322450325575860e-01  9.4154212002120441e-01  9.9119222641167248e-01  9.6934803462816610e-01  9.4025172492156905e-01  7.1554687317406981e-02  8.9708702396856788e-01  8.9384980071074360e-01  8.0381077106265270e-02  2.8638632251223362e-02  8.8364669386529138e-01  8.7370864759216071e-01  3.3196390524389031e-02  3.1487796490607359e-02  1.0233009935895510e+00  9.0609136996417886e-02  9.9633402312142544e-02  8.7845327436886433e-01  4.6671444624075839e-02  4.1032348127032436e-02  5.6889364363965099e-02  7.7864038809746780e-02  1.0118432102651602e+00  8.2245575389466419e-02  9.1280678722914443e-01  7.4127774500252999e-02  5.2808709531631512e-02  4.2225825674425892e-02  5.4431691495619973e-02  5.6679040668877176e-02  9.0878705691324127e-02  5.4735652237384413e-02  1.0426896379412034e+00  5.0189997723471561e-02  5.2216312737565891e-02  5.5624767802845955e-02  7.5139960591264890e-02  4.0351274338330419e-02  5.7829330102152125e-02  6.2810870601536631e-02  9.1208361173299835e-02  5.8023760585986121e-02  7.3202395076421886e-02  8.0845403008450306e-02  1.0289976846696862e+00  4.4209076682325793e-02  8.2726579182115387e-02  3.3932111245870332e-02  7.3407826840786575e-02  6.0899140408552224e-02  6.1513152144809791e-02  9.9468291569534184e-02  7.4416205949114925e-02  9.8754084726925262e-01  1.0186496662306519e+00  7.7018096961800064e-02  5.1448436950395290e-02  5.7636850868645388e-02  7.0244601311905769e-02  9.8868840917112055e-01  7.3094894973744634e-02  7.4041817681622504e-02  7.4802221684511727e-02  6.5426141250091524e-02  6.4588256376110431e-02  7.0387627574493516e-02  8.1903190685445812e-02  9.3364708116456629e-01  9.2572777482180690e-01  5.9067743556636007e-02  8.4961677624844723e-01  7.9113012527801632e-02  6.9245334635717970e-02  7.9419529514050916e-02  2.4479484896027852e-02  2.7375341199005254e-02  3.4170398814501665e-02  2.2245442986274989e-02  5.1653230246803405e-02  6.1225800476810373e-02  7.4630055534168238e-02  7.0556630459182756e-02  9.2491168079715880e-01  5.0875675820308608e-02  4.7163760273382184e-02  8.3233089410555450e-01  7.6573274891478957e-02  8.2263981855760754e-02  9.3957579754041098e-01  8.2915963181808106e-02  8.4179429574307918e-01  3.7553568998193433e-02  4.7880949154933454e-02  5.3403681284531122e-02  8.5433425842223154e-01  8.4308800224456437e-01  7.0284218749790489e-02  6.0166430444351993e-02  4.3398383388408290e-02  6.0805083075422810e-02  6.1238291319154356e-02  3.3122332831405255e-02  3.9727535353118480e-02  4.1510206136517569e-02  3.4090165742583063e-02  6.2944808010580944e-02  5.3260044859334062e-02  3.2640718156527616e-02  2.8040153035161552e-02  3.2442540059707078e-02  3.7463195636545085e-02  1.4252212021808122e-01  3.8032701581484252e-02  9.7256675417278926e-01  9.0155164266017118e-01  1.3758448119722955e-01  2.8700922236670100e-02  8.2980782303998835e-01  1.3432034050782762e-01  2.5544812402761508e-02  1.5119507875820409e-01  6.5684938830165240e-02  1.3037365137620757e-01  1.4012217077405256e-01  1.1927752695326303e-01  8.3948025311732261e-02  4.4005299278859662e-02  4.9374527831957234e-02  9.1556834950449251e-01  9.1331561537076922e-01  7.4300449383110437e-02  4.0310655910787974e-02  1.2030315868538854e-01  7.2307916452565443e-02  7.8367739813052617e-02  5.8532827769025110e-02  5.9368243842641485e-02  9.6054613984587300e-01  3.1061127604076078e-02  7.5797137487048374e-02  9.5151150678198751e-02  9.2680613594014039e-01  9.8740569769093134e-01  5.3892858795923350e-02  6.7503510416459078e-02  8.5836795225013363e-02  8.3644640624045363e-01  5.7185252049045683e-02  5.5125890493175213e-02  3.6444155672005721e-02  9.2375620842412098e-01  9.7356421432692020e-01  3.4629908479971536e-02  3.8906232118482327e-02  4.6812885560193980e-02  8.2170310106728831e-02  8.0009269755302717e-02  1.3440769565491600e-01  3.2639341813906736e-02  4.7540126001061438e-02  6.3372467826115442e-02  3.7602266173871322e-02  8.1714879653300487e-01  6.8911057822249072e-02  1.2717098133005131e-01  1.4403304801041406e-01  7.3323219946358265e-02  7.0191800249757325e-02  3.5341472238046387e-02  1.0388853210815817e-01  8.1659410685976055e-02  9.3541897240670013e-01  3.3121292024842576e-02  8.2197850415872664e-01  3.3001639624352888e-02  5.3342196826520222e-02  1.0332760802493079e+00  1.1174941616780701e-01  3.2431785428519079e-02  5.7384430861002381e-02  1.5779366836965980e-01  5.0512327203379496e-02  4.3976403188670243e-02  4.4826881492569443e-02  4.9667425196774154e-02  2.8539372533515159e-02  4.9493998207465528e-02  1.0336648791955017e+00  5.3751289973495424e-02  6.0672150867009195e-02  4.8537014337101093e-02  5.3774916761254933e-02  9.3886089688445984e-01  4.2766440682428297e-02  5.8036583570393936e-02  5.0174601329562765e-02  8.0632343895146763e-01  5.0517625876372853e-02  6.2427485293422597e-02  9.6330191825228328e-01  6.2348705485015823e-02  4.8365837619459458e-02  4.1002290453325568e-02  1.2755523325666138e-01  4.8074746829059663e-02  2.8279857111549067e-02  1.0066667086229442e+00  6.1761309177573422e-02  1.0090427143587697e+00  9.9112416970713668e-01  3.8674177033787512e-02  1.4603002011090638e-01  8.7752233051792428e-01  3.8005194383977883e-02  1.4928813952469711e-01  1.0139835029464550e+00  3.8021341238330973e-02  3.7536862196930622e-02  9.3758380003783426e-01  9.5423720109786514e-01  9.5626986559211025e-01  8.1393218838721804e-02  5.4089354820586827e-02  5.5993424866328384e-02  1.6007129382791760e-01  9.2793445623873094e-01  1.3956399110778234e-01  9.1320298833784874e-01  4.8847084684039123e-02  1.1432205108358877e-01  1.1008668095240813e-01  1.4082766453505824e-01  7.2398293518243770e-02  9.6201846840197058e-01  5.9169230586231539e-02  7.2230032551215989e-02  5.1490502964571187e-02  4.9975022966732847e-02  5.9945689830506473e-02  8.0409066614202857e-02  6.8166568128913488e-02  9.6511510465679451e-01  4.8924942568742948e-02  1.5573515829084911e-01  7.7737920900531193e-02  1.6263549960660489e-01  6.2178537040251752e-02  9.1370499875412292e-01  9.1255779041995788e-01  4.2314189486474925e-02  3.3262368304628490e-02  1.0338665565272538e+00  5.9920049758631459e-02  9.9373264320988219e-01  9.7339414247445311e-01  7.8722326388249741e-01  7.9611924985632632e-02  6.3406653687079526e-02  3.5174350871218688e-02  8.2170874694866697e-02  7.2524815220556829e-02  7.1891491997688448e-02  7.6161927994398373e-02  9.0377787386239028e-01  2.7070359125000890e-02  7.3089678475795075e-02  6.6193900819354667e-02  9.5165606715764139e-01  7.4379892924669022e-01  9.5213534177447723e-01  9.5906859680065237e-01  9.7606218895102537e-01  1.6236351654670722e-01  6.1094560932662904e-02  9.2847593884399260e-01  4.8854688764515229e-02  5.3440577892543979e-02  3.9021439689017196e-02  8.2976916476405455e-02  6.0661280865420046e-02  5.7477737127970503e-02  6.3946195529321917e-02  1.1782713727624439e-01  2.6124967771711506e-02  1.0177386639485117e-01  9.2392068709226149e-01  9.6678136331871767e-01  7.4793887811308279e-01  7.6981399946154494e-01  7.4534666492805446e-01  9.7483069182969798e-02  1.3041277262583614e-01  4.6503579553674290e-02  8.9923626661780565e-01  1.4050331750401039e-02  7.4041320996684479e-01  4.1219909436188064e-02  6.1596951923296908e-02  6.2841029956961961e-02  1.7500759083232811e-01  6.2525947496099271e-02  6.3489599171595468e-02  8.5594611877153493e-01  2.6525074950358274e-02  8.6947246976371753e-02  4.0560610930673244e-02  3.0185739327546326e-02  3.1837082885134829e-02  3.9837810080888394e-02  8.9724843686261646e-01  5.0727441718344014e-02  8.0060249945413442e-02  3.5482528943498674e-02  9.0108949867816568e-01  7.3792529516063965e-01  2.6136463565672213e-02  8.6957194761611933e-01  3.8625844209276734e-02  7.7221839901145409e-02  7.8792797257940500e-02  8.0578065154361680e-02  1.2925549557138918e-01  1.5458330102415702e-01  9.2937685914276558e-01  9.5002528344096415e-01  1.0041481298663024e+00  7.5568236997189397e-02  2.4044417804255099e-02  2.2900018317109638e-02  3.2238958008303502e-02  1.7578784940288275e-01  1.6656897761547229e-01  5.3292397277625199e-02  6.3958145306754727e-02  9.4729576693860740e-01  9.0879828165891696e-01  2.7373527132426485e-02  2.5732801100177984e-02  3.5021807838079712e-02  5.2339650668956746e-02  3.1327734522903390e-02  3.1960761329156581e-02  7.2377695817672130e-02  9.0086771353168305e-01  1.3266193780136082e-01  7.4755576427275849e-01  9.3315815756676490e-01  8.4981008070345987e-01  1.6344995831661982e-01  6.6900125270046698e-02  5.5231794648144629e-02  7.0479248139381834e-01  8.4666770140587461e-02  6.8732046002451780e-02  5.4000402051460762e-02  9.3031929320793139e-01  3.1758527733761477e-02  3.4569087267916257e-02  8.0436240373969722e-02  4.4444727992447967e-02  4.8501612577634579e-02  7.3264140799680036e-02  6.0308081843253369e-02  8.1236250345982676e-03  5.7720994708125764e-02  5.8522364114954456e-02  5.2890944457875351e-02  3.3642686970724311e-02  7.3238301232488145e-02  7.9517677072735868e-02  1.6420725201171021e-01  6.1500074387728865e-02  1.5015232479719409e-01  7.9169427449841998e-02  6.6450973603670707e-02  1.4375441931278668e-01  6.2895965630066983e-02  7.5159653854903988e-02  7.0398022654997214e-02  1.0246578780572062e+00  8.6529735393740470e-01  8.8296395056452504e-01  2.8872963999884892e-02  3.5842102366057435e-02  7.2100826430980128e-03  9.1153819782886211e-02  4.1724713595252046e-02  7.2218264085330774e-02  3.5509814485533524e-02  9.0433452484333132e-01  6.4082928428892308e-02  7.6024696735928363e-02  4.9998088634706464e-02  6.2143311896704474e-02  4.9831408082741467e-02  1.0127268635990447e+00  3.5208371170659961e-02  1.6935888900052157e-01  7.4793996160682247e-02  9.2512593416853695e-01  5.8709888048880714e-02  6.4712689451358277e-03  9.5701305316643914e-01  3.2248950837794658e-02  6.8525174865039118e-02  7.8241240790876437e-02  9.4184920123798102e-02  9.8912308320809439e-01  9.1044216796441513e-01  1.7741680264383183e-01  6.9691473254333752e-02  4.5386265435978165e-02  9.9589812897949714e-03  7.5138767545433235e-02  5.7024664358061493e-02  4.4341878152209552e-02  3.7024030371894057e-02  7.1515680067017062e-01  3.6514101721432241e-02  6.1993328105518275e-02  3.8646563924352909e-02  1.0353711428576862e+00  3.3643353704121512e-02  5.7562952479810962e-02  6.7340100877345724e-02  1.6204793107549048e-01  5.6528996865824792e-02  4.9977769924423272e-02  7.9857496411938539e-02  1.0272503948875624e+00  1.0406331710458321e+00  1.0325248345583171e+00  4.4166966159637611e-02  6.9030383930136863e-01  6.1460833468971819e-02  7.1875559554582399e-02  4.9131177091723613e-02  4.2275331138292557e-02  7.9192214422323648e-01  7.7140602502814945e-02  7.7579695341200805e-01  6.9382053736999061e-01  6.2224782691247392e-02  5.5681500454420767e-02  5.0035699146318717e-02  9.1435910085997385e-01  4.5339053137982761e-02  3.6932313666177538e-02  3.3755253001120020e-02  7.1027264337232610e-02  6.7460354654627436e-02  9.2814845835901161e-01  5.6915504979815602e-02  5.0910164257734120e-02  6.1878140212693958e-02  6.5927751853804256e-02  6.3200542246166100e-02  7.3766225833896928e-02  7.9670932919793047e-02  2.0434531206602180e-01  5.8025808899516466e-02  5.5203234133333702e-02  5.9479079694094543e-02  7.5040194273010397e-02  6.0947394390840459e-02  3.4270158080953669e-02  5.1389920321054397e-02  2.8255562767161971e-02  7.1311735056557107e-02  7.9267012192911557e-01  8.6176065258800660e-01  4.9083977636090931e-02  3.3378374764416067e-02  4.8810892425531459e-02  3.0956502138036437e-02  8.1630715602330137e-02  7.3209861845301233e-02  4.1126666387106894e-02  6.7960810680924910e-02  3.8028070787290147e-02  3.5016883782401399e-02  4.7043891949103772e-02  6.9882983614253838e-02  1.6345337535687987e-01  5.0809095198814921e-02  7.9421968855434899e-02  8.1616524104380084e-02  8.0057008666016144e-02  3.0101413406926455e-02  3.0417793925355738e-02  2.2060938390875925e-01  6.8623359775446302e-01  4.4854568886354168e-02  7.6886893785385824e-02  4.6598533291246122e-02  9.5265722537877751e-01  8.3831547258482297e-01  6.6294352621425989e-01  2.9640446331062189e-02  7.5340297762831798e-02  7.0763419244086259e-02  5.6914714013803505e-02  5.4397097009002020e-02  5.9641575608905199e-02  9.1536944735064107e-01  4.5542891648791439e-02  5.7255051669064146e-02  4.4975028131433101e-02  4.4635484997602067e-02  8.1506416248052355e-02  8.2057039965926518e-02  8.2411527665306197e-02  3.8859246248468433e-02  5.4692183214031249e-02  6.5647223970391161e-02  9.6599731065153782e-01  6.9557158657657836e-01  8.7442895144988708e-01  4.3515323351924692e-02  4.7448307277641724e-02  4.4139628099003909e-02  7.6344693052336571e-02  7.7369094945053105e-02  7.5432352662795576e-02  6.7069105821321029e-02  9.1088946243331903e-01  6.3714219606564523e-02  5.6458174728620990e-02  9.1754138327277079e-01  6.2509212821260707e-02  4.7849388946796891e-02  6.9936022244637533e-02  6.8195913652932552e-02  7.0321168638971518e-02  4.8241540024616725e-02  7.2153859203846343e-02  4.4203545339057161e-02  3.3509977151055470e-02  3.4433863243904524e-02  8.3100423973996349e-02  8.0383400579180933e-02  6.4645969894344041e-02  6.6825868470072464e-02  5.1307085156121139e-02  6.0925119583403131e-02  5.3830846246645615e-02  6.5975297032584118e-02  6.5552599624945723e-02  1.8928243192135843e-01  2.4518612377389233e-02  1.1665736261264046e-02  1.7448016544575801e-01  8.3748134196729732e-02  6.4739314159414987e-02  5.0837966047970237e-02  5.6391489303689396e-02  2.0446871206442695e-02  2.9544661778197760e-02  7.5240656113829629e-02  9.0635756573632587e-01  4.1633533715526055e-02  6.7385226253867558e-02  9.3585462920349072e-01  9.4562195364843038e-01  3.4739434164723824e-02  6.3737329584844599e-02  1.8474682276593016e-01  3.3290797341438437e-02  2.2727576824973457e-02  5.3380706242640144e-02  9.8084715726272964e-01  1.0000374279771371e+00  9.8210674568380163e-01  5.9678486279622286e-02  5.4182041948450770e-02  5.9968446261428117e-02  6.2368337124272318e-02  6.1665338568706596e-02  1.5479657174215045e-01  1.9302540143324165e-01  7.1743787408610582e-04  1.0931077536927498e-01  9.3893628190778441e-02  6.2780138434213276e-02  -2.3432872300093804e-03  9.7330806101231493e-01  3.3677031711116703e-02  6.3083900453148073e-02  6.5129481772746425e-02  3.7704857106906492e-02  1.9488239493287296e-01  5.6256713610495300e-02  7.1702594353639057e-02  8.1453817534656914e-02  6.0693920373603313e-02  6.1143563906197504e-02  9.1340545307345949e-02  7.5944431849630212e-01  7.9240330122851116e-02  8.9282903475226938e-01  4.8508657278049164e-02  4.4599505939098914e-02  5.4234165934862646e-02  4.3559484735949422e-02  4.6789661135899344e-02  6.3501518898821357e-02  7.3295336397668359e-02  6.0494619490266632e-02  7.2663557996817535e-02  5.8716359838548983e-02  3.1838155586696767e-02  3.0080411024011863e-02  2.4916154268646636e-02  1.8872484879335148e-02  6.8442923764405084e-01  2.1944164470052538e-01  2.6774620242868918e-02  9.8050071384377357e-01  1.0043400705535073e+00  9.9676029010927547e-01  6.9157633184856016e-01  4.0654701977100346e-02  6.6845731724873159e-01  8.9893717310017607e-02  2.0416410204644700e-01  </DataArray> 
</PointData> 
</Piece>
</UnstructuredGrid>
</VTKFile>