<?xml version="1.0"?>
<VTKFile type="UnstructuredGrid"  version="0.1"  >
<UnstructuredGrid>
<Piece  NumberOfPoints="1025" NumberOfCells="1947">
<Points>
<DataArray  type="Float64"  NumberOfComponents="3"  format="ascii">-1.001828974850345 0.08821448987259278 0  -0.9950222692564767 -0.02149504371842816 0  -0.9754849786930603 -0.1295036601275901 0  -0.9436431367950926 -0.2344324278294365 0  -0.8996863499966772 -0.3355773108831364 0  -0.8444971109377923 -0.4307680257123986 0  -0.779724652316843 -0.5181208192922917 0  -0.7066330094503047 -0.5964598407762233 0  -0.6275785097506577 -0.664782359203689 0  -0.5445171074567997 -0.7226818182996317 0  -0.4572225002243968 -0.7713460780538711 0  -0.3661628261402146 -0.8109616347678966 0  -0.2711832101221352 -0.8417483741926177 0  -0.1739932919081471 -0.8629929694589737 0  -0.07492160180632663 -0.8748647114698272 0  0.02460379733793544 -0.877283426965862 0  0.1237020085189002 -0.8700803777873741 0  0.221787752576999 -0.8534022703910185 0  0.3177186634739137 -0.8273278426786639 0  0.4104233217616444 -0.7921451175402036 0  0.5004008567819704 -0.7474844366472763 0  0.5856518746025284 -0.6940539858618688 0  0.6658625069142181 -0.6317312310266285 0  0.7418956234860358 -0.5587312002935602 0  0.8113243933021923 -0.4757082620021714 0  0.8716795256422761 -0.3845745525963567 0  0.9216804735088427 -0.2863159591401858 0  0.9598543087880327 -0.182965781690331 0  0.9855878854697356 -0.0766912676412175 0  0.9989939495247546 0.03233427615096718 0  0.9997728007691443 0.1415298148894001 0  0.9878313799280428 0.2500194239625837 0  0.9634711318574282 0.3567630777870407 0  0.9273964719389344 0.4594063467334282 0  0.879870306919465 0.5576271837891633 0  0.8216359492030995 0.6497309421933825 0  0.7529284919833242 0.7353376551291344 0  0.6756917267697728 0.8123227353028359 0  0.5902109188250158 0.8803780561846254 0  0.4982476765525972 0.938628424569298 0  0.4000280343337634 0.9870060389146025 0  0.2966900605399764 1.024459903551705 0  0.1908050097582772 1.050516185168159 0  0.08242110387782713 1.065118109638394 0  -0.02730122508520852 1.068096322895318 0  -0.136517790530276 1.059144336397657 0  -0.2438997631008869 1.038809402185237 0  -0.3482181404556192 1.007047733805025 0  -0.448912855695749 0.9643006496848253 0  -0.5440874096881942 0.9112054720268276 0  -0.6333986292142409 0.8477197589351407 0  -0.715142635545527 0.7748789302371897 0  -0.7880317191380904 0.6940420364950318 0  -0.8514076843523077 0.6055507552127749 0  -0.9049530278949033 0.5100481068462763 0  -0.9471874591631115 0.4098988905414869 0  -0.9776893520442682 0.3052053120111146 0  -0.9961018645769701 0.1971576677005636 0  2.232944971969455 2.861135912291637e-05 0  2.223966919103381 0.1999566877241565 0  2.197018534627448 0.3989030918522498 0  2.15248540252272 0.5940175073050746 0  2.090554499884318 0.7846264099438003 0  2.011897474002202 0.9686531034766063 0  1.916846531734527 1.145257115901315 0  1.806466478741379 1.312477189742302 0  1.681431394360003 1.469290205371401 0  1.543127215386078 1.613945530574281 0  1.392223671142589 1.745792025229443 0  1.230104131117877 1.863573179726663 0  1.058299053763019 1.966223665944218 0  0.8773836308664817 2.053343923804081 0  0.6902450777386724 2.123578686269012 0  0.4968771878332015 2.176941196950425 0  0.2997320994042881 2.212710476724987 0  0.1001756065079691 2.230671974925037 0  -0.1004163769246614 2.230683035323007 0  -0.2995006090425643 2.21276473719591 0  -0.4968695942117841 2.176942039824747 0  -0.6902442612620696 2.12357937220392 0  -0.877382231900768 2.053345084442383 0  -1.058110159277557 1.966298128491138 0  -1.230291439889887 1.863441216808619 0  -1.392202261577044 1.745806116230616 0  -1.543111873671973 1.613961957696528 0  -1.681572462135227 1.469143068852445 0  -1.806493972847014 1.312493678319255 0  -1.91687286886667 1.145280125312826 0  -2.011827462577729 0.9688148293518837 0  -2.090485355117298 0.7847853823751828 0  -2.152531710396967 0.5938136031424662 0  -2.197009565726644 0.3989400579885997 0  -2.22392532241941 0.2001610192211003 0  -2.23292220654598 -6.321385739153113e-06 0  -2.22392496971928 -0.2003973714989321 0  -2.197094379675704 -0.3984715801932671 0  -2.152444454839499 -0.5940377457816264 0  -2.090468661387512 -0.7848215933376202 0  -2.011908549073266 -0.9686215104755908 0  -1.916759519641835 -1.145444815214596 0  -1.806509728740793 -1.312469776697368 0  -1.681550104483117 -1.469163434686923 0  -1.543243910826195 -1.613817036608974 0  -1.392031747663071 -1.745927353564332 0  -1.230318524401332 -1.863420742425504 0  -1.058108654465234 -1.966296005715779 0  -0.8773818764370095 -2.053343661048058 0  -0.6902421252228046 -2.123578976098509 0  -0.496684826365607 -2.177001884029672 0  -0.2997372563856791 -2.212739736360645 0  -0.1003752576088715 -2.230685830108551 0  0.1004168242143611 -2.230681600807615 0  0.2995018830410138 -2.212763745188357 0  0.4970718215485069 -2.176913099259563 0  0.6899935189907077 -2.123670810988915 0  0.8776313013127752 -2.053247770994624 0  1.057945637948779 -1.966413940277959 0  1.230284789635691 -1.863446751581093 0  1.392220546808023 -1.745787298871355 0  1.542960401624895 -1.614093387654732 0  1.681696146316866 -1.468984861281433 0  1.806475668776047 -1.312515442395701 0  1.916884366859777 -1.145252897725738 0  2.011721244414614 -0.9690158061875347 0  2.090531200418125 -0.7845929532805267 0  2.152446773377597 -0.5940341532873676 0  2.197089453049958 -0.3985059849371953 0  2.223954729461669 -0.2001894266573249 0  7.572329933131382e-05 0.1148438704453793 0  0.1339501249457963 -1.558187004747667 0  -0.5549627136294943 -1.466282737303533 0  0.7900088768990754 -1.358272166828041 0  -1.142451043704978 -1.094590100116822 0  1.324183681915234 -0.8780569130567404 0  -1.520436128221871 -0.501771345434328 0  1.588490821347621 -0.2458697478000315 0  -1.610106121220916 0.1949869510668168 0  1.562210392401342 0.453802968340263 0  -1.393885754838015 0.8566700866028841 0  1.291656175624873 1.016064271921956 0  0.7055039710641512 1.489325427954848 0  -0.97586286762352 1.328794298727702 0  -0.2988732304497489 1.623588922982213 0  -0.5024589588977323 0.02974280892795582 0  0.5077647333518593 0.1048351152943275 0  0.2030088592819302 1.550776086460029 0  -0.3068084741772652 0.4912596662635054 0  0.2498083158604137 -0.3074333163825205 0  0.249838703330382 0.5269268649192409 0  -0.2373163396055478 -0.3432608488892523 0  1.229651977228695 -1.305282621733914 0  0.5419961917409534 -1.715631834163266 0  -0.3285854383909934 -1.806734170194334 0  -0.9458116295858844 -1.579457568240058 0  -1.538046403139959 -1.014995472277398 0  1.839185681998986 0.07506728041064824 0  1.685893682118772 -0.6531327543718229 0  -1.832293524998857 -0.2539505419213386 0  -1.717445201657544 0.6005694104682088 0  1.126201395286912 1.414200296909365 0  0.8622844749073787 1.140265757482951 0  -0.182974053881917 -1.284664985486521 0  -0.006888011867741717 1.867194070351984 0  0.9151642667733054 -0.9692863249380888 0  0.3917778569272912 -1.241702621074822 0  -0.7283270356152527 -1.096456086961808 0  -0.7185907400238309 1.666344042352692 0  -0.5443261153861406 1.328123644172242 0  1.644633209889082 0.8751509586687982 0  -1.353160003136747 1.283097394266147 0  -1.154564984359525 -0.6849015617122047 0  0.4865692900134858 1.801220949475316 0  1.263020610023556 -0.4898528909749141 0  -1.478596426922313 -0.1464569553030339 0  1.466103956316565 0.09538854928435558 0  -1.3517022912431 0.471782139184889 0  -1.7508941054576 -0.7533015497308883 0  0.1711628217300019 -1.899418098483298 0  -0.6666697986660518 -1.788010721096906 0  0.9816031812351352 -1.63925641338776 0  1.247365638121584 0.643629312412664 0  -1.010943105878746 0.9698387680265979 0  -1.912594999709441 0.06474363752508878 0  -1.396590378667667 -1.309519762388492 0  -0.04301182688603129 0.7249983825335465 0  -0.618648587495554 0.341681357715795 0  0.5733305920920568 -0.2323704028992621 0  1.520432740242044 -1.14871139179979 0  1.87830283592021 0.3947208318819877 0  0.5757127656919339 0.4360436803607228 0  -1.219282273117815 -0.3831516205188571 0  1.911884811842924 -0.263369847409263 0  1.275509168893411 -0.1845305487653481 0  0.4305183051285549 1.316250487094117 0  -0.07784488983435191 1.385178522693264 0  -1.299173418586509 0.1658388989408732 0  -1.592821963042835 1.094262703009987 0  1.279461110623677 0.3299269111116707 0  -0.5783654363098918 -0.2778717567084329 0  0.02011321054780793 -0.5350330516045042 0  1.028004582466001 -0.6915281899120671 0  -0.9259048750526937 -0.8772941013844641 0  0.6143127497313762 -1.041184167658472 0  -1.145260852572905 0.6857819760781325 0  0.9534517586304445 1.675612095858057 0  1.019490560824232 0.8776748343799516 0  1.418435872981586 1.306443688416285 0  -1.190539843641117 1.533057709158435 0  -0.2987280902339838 1.919681831079183 0  0.09735224934230506 -1.182588960205979 0  -0.4252697408480199 -1.115457564252752 0  -0.7616729575595883 1.127103075011104 0  -1.86369505756827 0.3507947421521567 0  -0.02134529998794451 0.4033621374769505 0  1.716525726669743 -0.9384058457421979 0  1.834986613778731 0.67209592926411 0  -0.153281869529832 -1.574828328041098 0  -1.220824528857759 -1.526876948423172 0  -0.7966498278032706 -1.355177782017848 0  -0.005103222123421672 -0.1705038186463561 0  -0.2367323136318885 -0.02755501744046345 0  -0.2405263511316283 0.2369093644735405 0  -1.430618313930418 -0.7591209745724434 0  -0.7456904916501533 0.1064530404175675 0  0.7491982807722555 0.174144890468936 0  0.2161649659734072 0.7813135524693986 0  -1.782049750091393 -0.5022988441834827 0  -0.3773201063569692 0.7276766233536511 0  -0.07256938904062366 -1.819609569575179 0  0.2596800480100229 -0.5670319225919002 0  -1.756815558665776 0.8752194996303472 0  0.2535968385671759 0.2472093630797301 0  0.2450145648093278 -0.02812885535057832 0  0.1699926344549807 1.299854799492754 0  0.4608582500883167 0.6665156112372347 0  -1.226027251647514 -0.1095196092231778 0  0.2354314936243828 1.799430272164399 0  0.5489254617135279 -1.454279399333902
[...]
<PointData  Scalars="f_2493-1"> 
<DataArray  type="Float64"  Name="f_2493-1"  format="ascii">3.4299161915819015e-01  3.5680811302991056e-01  3.4264129720585412e-01  3.5009547639264349e-01  3.4395805987532579e-01  3.3942199850222954e-01  3.6613007897523453e-01  3.8997173291010673e-01  4.4992688710562828e-01  4.5335334140579986e-01  4.5514024864619890e-01  4.6159935717383005e-01  4.5545421328504659e-01  4.5119911872047685e-01  4.4193960886720302e-01  4.6786818646838102e-01  4.6283868047125831e-01  4.5340047045608189e-01  4.6137889558886058e-01  4.5658795679906800e-01  4.4498606580427563e-01  4.5484053706293931e-01  4.2967342024180910e-01  3.6920913292767027e-01  3.3667040140076920e-01  3.3755557792488755e-01  3.4278554245949316e-01  3.4894263916182028e-01  3.3763067463897978e-01  3.5504528194417473e-01  3.6147660356965827e-01  3.5741885811419905e-01  3.5797807562861167e-01  3.5759840131764531e-01  3.7217726806341916e-01  3.7053696150115167e-01  3.7475981184372442e-01  3.8152779314661889e-01  3.7991109632182490e-01  3.8097804787927114e-01  3.8588120463172959e-01  3.9073991667293173e-01  3.9478024285366337e-01  3.7745057784914471e-01  4.0253110658230118e-01  3.6689426997209601e-01  3.9306271411944915e-01  3.8661200390776335e-01  3.8235798586117226e-01  3.8941528795876890e-01  3.8220334735108097e-01  3.7887896451789121e-01  3.7001559743217244e-01  3.6962522667532194e-01  3.5112789564491498e-01  3.6784686938965500e-01  3.4468622106543589e-01  3.5091948798442407e-01  -2.7446856860478906e-02  -2.8212663313310786e-02  -2.0270475868887205e-02  -1.0663859368765124e-02  -8.7387462764773323e-04  -1.0318181908547301e-02  -7.7154600627347844e-02  -7.0541374648018476e-02  2.7238813764211842e-03  2.0060225182754920e-02  2.3418037872350899e-02  1.7678849792442840e-02  1.8961534467769565e-02  1.5990542074117351e-02  1.7761687021677689e-02  1.4020831857328622e-02  -4.7816960506824435e-02  -3.7572251890779028e-02  3.1956429376516854e-02  2.8887970106412000e-02  1.0169307371622419e-02  2.3655757019408124e-02  2.1003722921789546e-02  -5.1457560097824283e-02  1.4072204006543045e-02  2.3633370539518625e-02  1.1730840525476132e-02  1.1212778862584077e-02  4.6762354905865852e-03  1.2434231506609744e-02  -3.3817247386547819e-03  -1.5039194648773483e-02  -2.0038079247506512e-02  -2.4628043129659480e-02  -9.1554937444511431e-02  -3.4225002722947227e-02  -3.3913448595753681e-02  -2.9800341128084436e-02  -1.0766247470669014e-01  -2.7380571970254571e-02  -2.5864347117571285e-02  -2.5681675730171095e-02  -1.0582467488585566e-02  -1.4012019739707048e-02  -3.4528244884963290e-02  -2.3251566259821512e-03  5.2317316085015659e-03  -7.2485843033026492e-02  7.6981114636756271e-03  1.1853221094524696e-02  1.5015158395902761e-02  2.3169724734505289e-02  1.8427467600231884e-02  1.7134674488023211e-02  2.0113676467401823e-02  1.6983534580970589e-02  2.5422810332513018e-02  1.7780230998519712e-02  1.8282911521323147e-02  1.4825504769704009e-02  6.8876575677047367e-03  -5.0758748563223353e-03  -1.0175149501573826e-02  -7.6077869342849290e-03  -1.2107915803389597e-02  -2.1646238388718757e-02  -9.4607964376282438e-02  -9.9938054483308586e-02  -3.1150619452234928e-02  -1.9160057738893420e-02  8.2413377596148873e-01  7.6157224938205231e-02  7.0661016882517358e-02  6.6100987689898430e-02  4.9952584549093730e-02  4.0122764447094679e-02  3.0308501507777943e-02  2.9417926146985358e-02  3.5263544842753861e-02  4.0752508977353462e-02  5.3603202421796288e-02  5.8021785124222375e-02  7.6098663381163792e-02  7.0573946438095697e-02  8.1634653717418737e-02  8.1364382770548205e-01  8.0793085992074110e-01  8.2421121421052443e-02  7.9740475069762262e-01  8.6477731663716750e-01  7.9761971280635946e-01  8.7022772755009958e-01  5.2450182186038620e-02  7.1018153825098046e-02  7.2315302494720915e-02  6.1466091758107098e-02  3.7863714931227289e-02  3.1257732744964073e-02  3.1047291013839216e-02  2.8428713413579731e-02  4.2358089654483927e-02  6.6916639035617467e-02  6.6356286708731949e-02  7.6103912743074278e-02  8.0867446292571851e-02  5.4916533800335066e-02  7.1521260898132349e-02  6.1702436698863994e-02  7.5957934032179944e-02  7.4155427708274449e-02  4.7785438126673664e-02  6.1051266481980906e-02  2.9846405895594431e-02  7.8445846884219655e-02  2.6321337810965954e-02  2.8993942471347872e-02  3.1748561868937784e-02  4.1721214592537324e-02  2.9622765326616438e-02  7.2238660852079140e-02  6.6915216282370168e-02  6.0941832936354128e-02  4.6193996665844013e-02  6.3841412814522200e-02  2.9572154195998086e-02  4.5277256745394248e-02  7.9017182033990285e-01  7.9316422492287952e-01  8.1453619975072322e-01  4.0534745271539545e-02  3.4647575334426459e-02  7.8686475602125072e-01  2.0928603894390354e-02  2.6323725885281032e-02  2.4350211772376385e-02  7.9878633756562095e-02  8.6293237355029570e-02  3.1376646535856478e-02  5.1956149334547376e-02  3.8468814098783825e-02  8.1750330634893453e-01  9.0273620183028602e-01  3.9146515768800946e-02  5.0911555104732525e-02  7.5431686553623437e-02  5.8174445841035614e-02  7.0116712208843218e-02  5.7207669426711856e-02  5.7996124564809598e-02  6.5638167076669321e-02  7.8280562882112339e-02  8.0941072880444970e-02  7.0935928994721203e-02  7.6950489633702573e-02  3.4717658293543723e-02  8.0541905670340208e-01  3.1628943050434850e-02  3.9108350820232805e-02  7.5772729862014304e-02  5.2179300244234054e-02  6.4736585267456223e-02  8.5230410878226592e-01  8.3257144545482131e-01  8.1232273631490526e-01  3.4963758255851990e-02  7.7891750749469513e-01  7.7064862170791282e-01  7.7681351127371789e-01  2.8430502243097816e-02  7.6886168656170972e-01  7.3983978223588057e-02  8.8679865293920646e-01  4.4448942587425995e-02  8.1142320373641341e-01  8.3235269965132896e-01  8.9491914840074377e-02  7.7289495376499484e-01  2.8311550394329549e-02  8.1095290890553770e-02  7.1571336932178597e-02  7.1821463553263090e-02  7.4947837461401864e-02  8.3082236731383333e-02  8.0168173720904762e-02  5.3677014779511943e-02  8.8486786570061671e-01  4.3803540718167250e-02  7.5331427329946340e-02  6.3708159322730856e-02  3.5896181493289533e-02  3.1917554507366483e-02  5.2492957876778358e-02  3.6013101920586744e-02  2.3955551247605879e-02  8.6034842728955518e-01  9.6763716732082505e-02  6.8571395573539154e-02  8.7164654050583501e-01  9.4874089199091557e-02  6.4690951135217917e-02  6.3156797326905101e-02  6.9833123971914601e-02  6.8507741187719962e-02  5.1434615854321686e-02  5.7346107670791333e-02  4.9684057186327263e-02  5.9008264478252200e-02  7.6556256523357305e-02  7.6231460849723065e-01  6.7521228177217882e-02  2.9218946201905578e-02  2.9729232752590817e-02  3.3456220063580573e-02  7.7125258053670276e-01  6.2784103908075622e-02  4.1660054646522608e-02  3.5444329005542417e-02  6.0658846650077189e-02  7.4085272748998343e-02  5.6694272272526276e-02  7.3764103443803644e-02  7.4689959956135393e-02  2.9468375261342432e-02  7.1126656997245921e-02  2.2773872017363153e-02  7.6741932845202754e-01  6.5280547071723885e-02  4.4816381358014912e-02  5.8069369572852497e-02  7.9151693899367742e-02  8.3480642933022520e-01  2.3466148828356362e-02  7.6086769971623322e-02  7.4113915389539931e-02  4.6924947665478722e-02  4.0254519073390761e-02  7.6625893908965972e-02  2.3167531552291492e-02  6.7787664532088246e-02  2.3028632832595694e-02  3.5968522678863565e-02  9.2287343439349009e-02  9.7635290984812953e-02  5.5923129284062366e-02  6.9499861224836521e-02  5.7723904555094727e-02  9.1748968787660770e-02  7.1581140592303374e-02  6.6371643971173927e-02  6.7173090302755437e-02  5.4377717909289379e-02  3.6130911211396582e-02  3.0222057230108665e-02  2.7820950672497586e-02  6.3281037867875950e-02  4.2187169387460720e-02  2.8994517256546594e-02  5.3188877549918183e-02  3.7506920713067514e-02  5.6688299328729631e-02  3.5881535320163790e-02  8.0594602078858957e-01  6.0756288554867151e-02  2.4479128753099988e-02  6.2359314164258967e-02  6.8751774890312492e-02  4.3048750693296195e-02  2.9902781627641661e-02  7.1125990025926109e-02  2.6446567343433310e-02  4.3053327258611634e-02  3.1369326185301881e-02  6.6023618693953623e-02  8.2474960995033841e-01  4.0397044557684593e-02  5.1836432659866441e-02  8.0296723634541489e-01  5.8958196175661254e-02  8.0263331042220026e-02  8.1614157834326601e-02  7.4949990532465616e-01  8.7055454594392609e-02  7.6899250553392862e-02  1.0005179180927876e-01  7.6973654588889592e-02  7.4042785439503905e-02  7.5183200401337691e-02  6.2935568182195270e-02  2.2954225526571351e-02  8.8736507035890907e-02  4.5162592323126291e-02  7.4508494126621172e-01  3.2785202943395826e-02  5.4286974786281396e-02  4.4820465313710908e-02  2.7600250787070929e-02  3.2905818155288140e-02  3.6154770069620132e-02  4.3863576325755646e-02  6.6717493695237925e-02  7.3492148118301959e-01  2.9032152028695499e-02  2.1869422436233337e-02  3.6419226445665795e-02  4.9490079264937183e-02  8.7559316157647393e-01  7.5025545271816751e-01  7.7775393028410167e-01  2.5924334507990483e-02  3.5866641531361494e-02  7.0418389289984590e-02  8.3085865454001470e-02  7.2740968692696750e-01  7.4399310979832911e-01  1.1628199654220708e-01  6.7843916263062257e-02  7.0411699904152997e-02  4.9476145320344361e-02  8.9205631478385922e-02  7.9063796643716200e-01  7.9296297703552576e-01  3.7048103402906096e-02  5.1731163050693821e-02  7.6224611470084802e-02  2.9894267958080294e-02  7.4144423885668456e-02  1.3912137861223736e-01  7.3432919437427913e-02  4.0132823803040389e-02  5.1193621442249690e-02  7.9391247236244600e-01  6.1162108660028545e-02  8.4944057945302698e-01  6.6791979258698730e-02  7.5061206529684982e-02  9.1739593241795714e-01  7.3050622505289931e-01  3.3677817186239023e-02  2.3043723747740299e-02  3.0941125969226980e-02  3.1361096633805208e-02  6.3832036439787257e-02  4.2663577909410270e-02  7.0191895969057116e-02  7.3815846358264200e-02  8.9296220128905279e-01  2.8822876079031608e-02  5.6389081904795288e-02  5.2570982298609299e-02  7.8219840876298374e-01  6.5150888498498566e-02  7.3490281423857787e-02  7.9686934773348106e-01  8.2500306459282663e-02  1.4171098619943975e-01  1.4088032026649830e-01  4.3420899788250193e-02  7.9738629814493922e-01  3.2926899722861114e-02  6.2552081157059070e-02  7.5944611195420467e-02  5.4305197456062278e-02  4.6493568073512764e-02  8.1757373616111051e-01  7.4141691614558025e-02  3.3457376387867069e-02  2.2357604961518264e-02  2.9296773416919230e-02  4.5564153463217613e-02  8.8039641967602922e-01  7.3254760635671351e-02  7.2009399295541210e-01  7.9619308970959135e-01  8.1111734624682158e-02  7.8200264317411158e-02  8.2272875686584993e-02  8.2600483369233063e-02  6.7320098686674754e-02  3.3171692818087635e-02  7.8401722049935729e-02  7.4808222146104261e-02  2.0451900456587940e-02  1.2940566518316959e-01  2.3004678484959420e-02  7.4705749675137781e-02  7.9877996560428510e-01  8.4851031404226873e-01  2.0867557617549964e-02  8.1422853161774181e-02  7.1967724461713800e-01  8.1044277775696905e-01  8.1313325029996819e-01  8.0512766110371226e-01  8.1336096009817827e-01  4.0987046142020360e-02  6.4402224081836046e-02  1.3332013663609235e-01  8.1725251763141926e-01  1.9293144758016884e-02  8.9035725324729115e-02  3.9657637240984575e-02  6.2151611770691811e-02  7.8775055138561589e-02  2.9270605500882247e-02  7.3169079940612364e-02  6.8523434171983935e-02  7.4583454106298797e-02  3.6534652570617047e-02  1.4874861642472970e-01  8.4938949660300378e-01  3.9896742930237303e-02  9.9872048911112427e-02  7.6405215460966444e-02  1.1011675585983627e-01  4.0241426055751664e-02  3.1249174410930683e-02  5.8269532544528373e-02  8.6856004516038768e-02  8.9207894952977518e-01  5.5776954111937928e-02  5.6793510310223116e-02  5.3793524217957384e-02  6.9672664310259411e-02  8.4332826016438101e-01  8.4945643592682096e-01  8.3580211606923827e-01  8.2250147063728207e-01  8.3576427093834704e-01  8.2303294564890284e-01  1.3229574789220203e-01  1.3653136721342199e-01  2.8894518482971612e-02  9.5792015209356776e-02  3.1987635653169540e-02  7.1874726444012188e-02  6.4698638282138135e-02  1.4712241709578941e-01  8.0152174535507126e-01  7.9248698374130622e-01  6.9304881232624280e-02  6.4840397083971019e-02  7.8494921038536958e-01  5.0755558768137851e-02  5.6900547772486654e-02  8.1981439739733364e-01  8.3874214763172183e-01  2.4835351597444544e-02  6.7624407377634518e-02  3.4718638817157407e-02  8.1128130857884750e-01  9.5195177982269882e-02  3.7455631293359846e-02  3.2240760297074719e-02  8.0478668748831128e-01  2.5076913944187880e-02  6.2123006160698234e-02  8.0349515966401452e-01  3.9631971297359792e-02  1.4170668214038634e-01  6.4201310090912206e-02  3.0846563687428386e-02  3.0457714500327967e-02  7.8998306015092279e-02  9.4840813965423806e-02  2.2302438571028305e-02  1.3043770461583726e-01  7.3333003050160633e-02  4.0692100215015847e-02  3.8833920469203496e-02  7.0439093410339007e-02  3.1208628412656356e-02  7.0126011772028407e-01  4.9352454632768376e-02  3.7986331776218879e-02  3.2445417699474996e-02  7.5574842316285765e-02  6.3528340616960027e-02  5.4440489832624291e-02  1.2238649971393220e-01  4.8878352907640796e-02  5.8965507315489822e-02  6.8751014068334249e-01  7.0693953094068906e-01  3.2181712296093179e-02  7.1260836785941681e-02  4.4994485207406759e-02  7.7891252850690207e-02  6.9700428768720879e-01  4.9228807558110724e-02  5.7030876003604722e-02  6.0928205792163487e-02  5.9337065482303469e-02  3.6342437072675655e-02  3.3278673780941903e-02  4.3647200738796466e-02  7.5836731433330640e-02  2.7611632417859563e-02  4.9535323513899096e-02  5.7125138817821976e-02  8.0010149981789636e-01  4.9635383418963737e-02  3.7024929226984714e-02  3.2016882154441414e-02  6.4619787095945880e-01  8.8093197103595333e-01  6.3148663958406281e-01  3.9715121042531033e-02  9.0599066259634001e-02  7.3767830727762093e-02  4.6685114406475541e-02  7.2005523442667682e-02  3.0265264183880470e-02  5.6764605858750962e-02  4.5401296717616973e-02  6.5712501924172606e-02  4.7353078821586660e-02  3.8519788363175295e-02  7.5705286257937474e-02  6.3288777007125471e-02  3.6417003501429956e-02  2.1448845602261721e-02  2.8290843713625738e-02  3.3502004290725119e-02  1.5419208849170934e-01  6.8687825039433506e-02  7.6840015802541337e-02  8.6066215098780430e-01  5.9911627334777617e-02  4.9618236454450362e-02  3.9361224719983649e-02  6.8759096172532563e-02  6.3647780118039884e-02  6.9156149052892080e-02  7.8840581071362026e-01  6.9145314640387562e-02  2.7286859913264763e-02  8.0382384981396615e-01  5.3613343353926736e-02  6.4627117861303096e-02  6.7795626599202144e-02  6.2470352284950154e-02  2.6768544197097347e-02  7.2975242287663611e-02  6.5640426513447825e-01  6.0370972326049217e-02  6.6705646679254893e-01  7.6456715109837245e-02  3.1429913334670732e-02  2.2979558816059880e-02  7.7289797321362708e-01  7.2294640853885067e-02  3.3168110859855764e-02  5.7396558454500722e-02  7.2585885252132179e-02  8.2460652471796347e-01  1.6466530357681292e-01  3.4560992206275301e-02  6.8005648233249921e-02  6.4388580924006969e-02  1.6494278055535055e-01  7.9233677281660281e-02  7.1223699088925049e-02  6.9217670451714869e-02  7.1554660647759089e-02  8.8217769548553399e-02  4.7798834357537671e-02  2.6505978786083524e-02  5.9091646351611168e-02  2.0279810449860582e-02  2.4944011561967901e-02  6.6047474652902305e-01  5.6361512400979329e-02  8.1056397245733236e-01  5.5914679586766568e-02  5.8727878133041832e-02  7.5214796280318200e-02  5.9323687559187051e-02  7.8720399745494229e-01  4.9300549832337386e-02  6.9977986039652509e-02  7.2425278174554686e-02  7.2489653299827941e-02  2.7961842586027803e-02  3.0178165337876418e-02  2.7314904370593925e-02  5.4466458419219446e-02  5.4069716210203386e-02  7.0437229019014433e-02  5.5710118268754577e-02  7.8344618813734634e-01  9.6784901980338747e-02  7.3655502368838477e-01  7.7355387693442379e-01  9.0421707916684868e-01  6.1102355130378004e-02  2.8998203364236332e-02  1.9698129171942226e-02  6.5445861654981230e-02  1.3464559029149806e-01  1.6240140820252977e-01  8.3517268391350763e-02  3.5491799420886545e-02  6.9903525568346794e-02  6.9744953903825194e-02  5.4056450752782759e-02  4.4398165411802686e-02  7.9058715715809802e-02  6.1578148790932138e-02  7.1940594104003622e-02  1.0279190527144103e-01  2.4405000248497299e-02  1.0170651893988863e-01  8.6616579394516657e-01  8.1017855767485047e-02  2.2146100744437527e-02  8.3989091681006933e-01  -7.7081398514135075e-03  6.3484234711503273e-02  8.0557748976226640e-02  6.9753775124032164e-02  4.3453034568437326e-02  4.9604811699566674e-02  7.9752104966777670e-01  4.2521202911073447e-02  8.7086942604054779e-02  2.5136013630679750e-02  6.0847111768547679e-01  6.8532570950446459e-02  6.8916909887104541e-02  1.6316490363060301e-01  6.2626592929260774e-02  1.2973973485582033e-01  6.9909428985466093e-02  7.5334334749362672e-02  6.4443483813527880e-02  6.9571227750530790e-02  6.3849690826113803e-01  8.0647308123730471e-02  7.8149345286907523e-01  1.0125290494566511e-01  4.7838174751136331e-02  2.4824345080219204e-02  5.3535796604055289e-02  7.8712707816446847e-02  8.2787424819537811e-02  8.2482690874667849e-02  8.2388905183787206e-02  8.2318587875851668e-02  8.0207882719960696e-02  8.1370263835342169e-02  7.9989954012931935e-02  1.7916201536046519e-01  8.4565762631197405e-01  7.2988856542943292e-02  8.8018992078637426e-01  7.7832436549523154e-01  7.7478953002775885e-01  3.4701302786845772e-02  3.6097631606813979e-02  4.0418495427741813e-02  6.7837983418354661e-02  7.5277216056499241e-01  8.1182637306434291e-01  7.2516121825768193e-02  5.1961789621262779e-02  6.0016076179675015e-01  4.1788649405144540e-02  5.5663259632691427e-02  7.7665403406775205e-02  2.9473696061428547e-02  8.8452424809124486e-01  3.3682699253142857e-02  7.4519385495145710e-02  1.7662622567614406e-01  3.5941220505893684e-02  2.7798004515559548e-02  3.1388835579201448e-02  3.3283548514864668e-02  3.0894883450821652e-02  7.7528545208410640e-02  6.7841922868408233e-02  6.2986149708511227e-02  5.0600089602231932e-02  5.4861612346558550e-02  4.9891762680135884e-02  6.4344683739480046e-01  2.5045355361183567e-02  2.8560530944707032e-02  1.1822569798937203e-01  2.9703412866866667e-02  4.3374836705801972e-02  2.5867124596402721e-02  7.3790849040434425e-02  1.6668622430231622e-01  8.8776415640163686e-01  2.2933459432311596e-02  2.6353693438083456e-02  3.3594647165799213e-02  6.2983655262493138e-02  7.7236684457116817e-02  8.0389451753822325e-02  1.9618322489494286e-02  1.8481297732227384e-02  7.8605001907951638e-03  7.9462437735779912e-01  4.8720720636154943e-02  -1.6769337327946051e-05  2.9911209774424578e-02  2.9005335713891144e-02  3.0234606379997832e-02  3.5694411048642884e-02  8.0467456671727805e-02  7.8633006857578569e-02  1.7860380369682086e-01  8.3080954596983572e-02  7.0839846996312961e-02  6.7029694088032582e-02  7.3613332483930649e-02  7.2824343103920580e-02  7.9982311772673076e-01  1.7687868187693867e-01  7.0956435020414307e-02  7.7903347180110424e-02  6.5292715684043948e-02  6.4674418100994849e-02  5.6985862288583829e-02  6.0108913432362153e-02  6.1676713496337632e-01  -5.0940627198836352e-03  3.4049095439397846e-02  4.7898715309255713e-02  7.4941205110810039e-02  6.2773656109852624e-02  3.1012580186901770e-02  1.3153104791995882e-01  6.7973885362676539e-02  7.3841905117851381e-02  5.4479507694529181e-02  7.0834412191970342e-02  3.6180767484187512e-02  6.2635555035071511e-01  7.9160284141924397e-01  6.5325609968633236e-02  5.3117306612175348e-02  6.4710854768086148e-02  8.4029524658853172e-01  4.7107504074832178e-03  2.4881269921001550e-02  6.5574864697008753e-02  4.9381952509968206e-02  6.7102015840448226e-02  5.0336781134681569e-02  3.7659747105465512e-02  3.5834041213252593e-02  3.6246380439971221e-02  2.4301223472774788e-02  1.5659008432331384e-01  7.2456919017735419e-02  3.6009680797887626e-02  5.9396610158602103e-01  3.3082276223193846e-02  4.5248951198582764e-02  4.0138774695202856e-02  3.7994377792808905e-02  1.5642976477602655e-01  6.9013396776828190e-02  4.1238594687462082e-03  7.4121325295328511e-01  4.7569348150393161e-02  5.1384492839428128e