<?xml version="1.0"?>
<VTKFile type="UnstructuredGrid"  version="0.1"  >
<UnstructuredGrid>
<Piece  NumberOfPoints="1500" NumberOfCells="2830">
<Points>
<DataArray  type="Float64"  NumberOfComponents="3"  format="ascii">-0.9923904777858716 0.3186880937483416 0  -0.9911774584728729 0.2104602836911138 0  -0.9778437253390017 0.1029613754686907 0  -0.9528207903303711 -0.002492322378982096 0  -0.9160603356115329 -0.1050374459730515 0  -0.8681481737071775 -0.2029506075781571 0  -0.809849473814775 -0.29461201820615 0  -0.7417157710551874 -0.3795519648254218 0  -0.6654047766936414 -0.4557414384455793 0  -0.5827545218585011 -0.5223309424913785 0  -0.4951464567724103 -0.5788818786533958 0  -0.4034626808871663 -0.6253904274053678 0  -0.3077070445258316 -0.662079222482459 0  -0.2093163785844164 -0.6886301923544051 0  -0.1090175480814171 -0.7051442600788641 0  -0.009841516975618022 -0.7110420346159567 0  0.0875697585399056 -0.7065681031882909 0  0.1875461040817638 -0.6912570631075208 0  0.2870914894951312 -0.665455073523505 0  0.3833284488390299 -0.6296791493036498 0  0.4753633490019205 -0.584331072955193 0  0.5625190117840182 -0.5296577239000022 0  0.6450247376521855 -0.4651486370799661 0  0.7217834761656919 -0.3907542551884253 0  0.790663351608372 -0.3078662466647561 0  0.850506069274505 -0.2175302597003196 0  0.9003655084228394 -0.1205700297076695 0  0.9391520133551415 -0.01864004167754964 0  0.9662668570945234 0.08622146575021362 0  0.9815857463725025 0.1938382194270153 0  0.9848858782366786 0.3022832223643936 0  0.9760661598868245 0.4100719119706563 0  0.9554637767393194 0.5160430592277722 0  0.9231715697484741 0.619422989537699 0  0.8795679471792041 0.7185227925382976 0  0.8255386352140895 0.8118406856958083 0  0.761489845995831 0.8987399909352515 0  0.6882419510375228 0.9781157497549324 0  0.60674060979444 1.048788124891424 0  0.5179374586748781 1.110378980099741 0  0.4230097666297454 1.161930621119679 0  0.3229677909347572 1.202694059516524 0  0.2188759758993051 1.232515320149537 0  0.1121898727324857 1.250770247587349 0  0.004563712163087967 1.257428386696184 0  -0.1032144795573613 1.252386048258042 0  -0.210154170884796 1.235736168979194 0  -0.3147156840818391 1.207481929821496 0  -0.4154106848606697 1.168131976830826 0  -0.5110384349872742 1.118152256172963 0  -0.6005987237945499 1.058223284869763 0  -0.6834336381199145 0.9887163457300415 0  -0.7579589505155405 0.9107521924186694 0  -0.8235257892896289 0.8251938080499615 0  -0.8794168460000692 0.7328882405309329 0  -0.9247070946840246 0.6346181981890053 0  -0.9589697684878383 0.5319830653165545 0  -0.9816418703897225 0.4262153293701993 0  2.701497268349023 2.522650897326454e-07 0  2.69394670368827 0.2018829703368038 0  2.671327812593699 0.4026388283200146 0  2.633768166617281 0.6011393648060435 0  2.581480342948578 0.7962809009446742 0  2.514755679514322 0.9869691964847428 0  2.433964208360158 1.172135041859539 0  2.339567587486173 1.350751130181454 0  2.232085657075486 1.521810257858401 0  2.112118045547782 1.684358347808996 0  1.980341223605009 1.837486388930661 0  1.837485380746375 1.980337284411821 0  1.684360043606062 2.112117178475772 0  1.521808679128082 2.232082111168185 0  1.350750916854592 2.339568443467217 0  1.172137990913123 2.433968320835866 0  0.9869699459110921 2.514757210496412 0  0.7962815817369423 2.581480968511868 0  0.6011396170390563 2.633769426077774 0  0.4026393533153251 2.671327876686245 0  0.2018832893253012 2.693947380449578 0  8.472872983617833e-07 2.701501436805818 0  -0.2018822587678872 2.693947325158432 0  -0.4026374672223006 2.671324789371355 0  -0.6011407447695893 2.633769659893864 0  -0.7962801737226627 2.581478010770935 0  -0.9869697841616911 2.514756465558192 0  -1.172136977191949 2.433968734160925 0  -1.350751001731343 2.339568941882783 0  -1.52180819643712 2.232082417112315 0  -1.684356814175898 2.112115719847551 0  -1.837485616808317 1.980337540006477 0  -1.980341056290243 1.837486887863495 0  -2.112117842806025 1.684359109208736 0  -2.232083844523765 1.521810112610199 0  -2.339568206507381 1.350751028748461 0  -2.433968937208012 1.172135479552131 0  -2.514755891537269 0.9869684495613831 0  -2.581480399213189 0.7962815234486402 0  -2.633767893593967 0.6011412804424414 0  -2.671327031528578 0.4026364878766074 0  -2.693946425637847 0.2018832735125999 0  -2.701497345544644 -9.749473505041234e-08 0  -2.693946292630306 -0.201884240216125 0  -2.671326975517838 -0.4026376321058749 0  -2.633767742872113 -0.6011417942604291 0  -2.581479959673074 -0.7962821611142163 0  -2.514756415781209 -0.9869674798699777 0  -2.433967188521263 -1.172137839267522 0  -2.339568452342826 -1.350749321749161 0  -2.232084214897506 -1.521809696601832 0  -2.11211484142909 -1.684356112457974 0  -1.980337092869446 -1.837484854339845 0  -1.837485724269224 -1.98033740371179 0  -1.684355664618451 -2.11211537764552 0  -1.521807750962564 -2.232081878300075 0  -1.350751533677324 -2.339567881761202 0  -1.172135414662546 -2.433965289680148 0  -0.9869687684546246 -2.514756655463609 0  -0.7962829674591988 -2.581480304822919 0  -0.6011390622321169 -2.633768803476319 0  -0.4026380385942279 -2.671328700267883 0  -0.2018827809930352 -2.693946403106353 0  -3.780993956523367e-07 -2.701501040513898 0  0.2018842897890445 -2.693947246007622 0  0.4026368224862408 -2.67132402415794 0  0.6011400845540031 -2.633765646789371 0  0.7962821694764277 -2.581480852032299 0  0.9869687065210883 -2.514756418974479 0  1.172135022969398 -2.433969563459284 0  1.350748419899856 -2.339565329545792 0  1.521807888230607 -2.232081561296032 0  1.684356096047797 -2.112115963262278 0  1.837487302388419 -1.980340470343268 0  1.980339957710365 -1.837486993570197 0  2.112118773712816 -1.68435863964327 0  2.232084564174833 -1.521809158867408 0  2.33956874961825 -1.350749161571584 0  2.433967672439303 -1.172137457863649 0  2.514756909521653 -0.9869689150197993 0  2.58148033303207 -0.7962792671863957 0  2.633768458752047 -0.6011390492592019 0  2.67132679637586 -0.4026386597424322 0  2.693942397176893 -0.2018834967997473 0  0.08888235387648331 -1.703382959102062 0  -0.005237417867808129 0.2761752404187993 0  -0.9163291154497278 -1.463925214656693 0  1.008329970441766 -1.405065899842172 0  1.631055824425544 -0.7145915069194118 0  -1.632911875780304 -0.7169010641859219 0  1.838594236934735 0.2033022913472907 0  -1.843297926420703 0.2036187025071013 0  1.62604035459405 0.9975493446439969 0  -1.622106870951345 1.014551596093239 0  1.137978469396983 1.58368310605689 0  -1.120144914411776 1.599182166423009 0  0.4707585802710174 1.91702848855696 0  -0.4506998873684394 1.922546043006837 0  -0.5092726387049383 -1.979962725289137 0  0.6793657504547924 -1.951920647503659 0  -1.567364205606048 -1.350286339497367 0  1.603211742309279 -1.380725369899769 0  2.104458527185043 -0.3998759218203732 0  -2.104767534852669 -0.4002681478798021 0  -0.2578428857742501 -1.256766703195482 0  0.4397856187891709 -1.237481220279306 0  -0.993353451063608 -0.911808833456333 0  0.9384368089220667 -0.8939069068494113 0  -1.01111811806247 -1.958754420364838 0  -0.05037446949985339 -2.195883666616222 0  0.4694910600294943 0.4239812621978517 0  -0.5014541944049654 0.273566433209334 0  1.171130572648948 -1.876622258180865 0  0.345987850382541 -0.06704409677272669 0  0.1017724301875548 0.7559615778734263 0  -0.232441306833494 -0.1562511330373094 0  -1.464851846964454 -0.1978507046108795 0  -2.05446363743428 0.6990175445139954 0  1.458093653581284 -0.1967377631694711 0  2.066290597499725 0.7201049347478712 0  1.959419187141616 -1.063440212566438 0  -1.954056288674948 -1.071539181431838 0  0.0115248260594929 2.176052665311881 0  -0.03781165141268738 1.716162717604867 0  1.624224673436596 1.494477189533256 0  -1.607579045910438 1.511925011040032 0  -1.470467933689645 0.5348736394132383 0  1.461069249133889 0.5249750779552427 0  2.252789627098961 0.02448186710487832 0  -0.8987713592110966 2.056409702094566 0  -2.254344683348884 0.02203727664115917 0  1.170943532177837 -0.5271035509653367 0  0.9031250473182368 2.065950768162212 0  -1.229266796521858 -0.5562577828238807 0  1.177042992945549 1.117614033942209 0  -1.146983446620761 1.143984430114763 0  -1.28683686648896 -1.652354490852376 0  -0.6513825450935334 -1.14282400170892 0  1.347218176615544 -1.034672028600952 0  0.6924068198811616 1.524398498044863 0  -0.665034875840198 1.533298057147966 0  1.958336279734518 1.22777398558171 0  -0.3625240253885303 0.6915974744941723 0  -2.018883541206635 1.103368409843752 0  0.372219293626333 -2.246753830294933 0  -1.41556580019677 1.842671424549148 0  -0.523613020913134 -1.57040948722043 0  1.43408440390476 1.825749608798354 0  0.4350341939279542 2.295149508957182 0  -0.4354207394669712 2.298590399707098 0  0.6551884855362656 -1.563196882710613 0  -1.473912386154129 0.1677799962396553 0  0.3319828086389421 1.578587086556083 0  1.474548481794068 0.1634715886156967 0  2.287863938316022 0.407140194816248 0  -2.199645248384332 -0.7706111114951735 0  -1.207859103343207 -1.225059356808277 0  0.08417248238849324 -1.093337188122627 0  -2.162588058318583 0.3628318528616938 0  -0.3862896043545204 -2.315706097602475 0  -1.318808665450864 0.8442749626939308 0  0.9473095342509756 -2.172468041118207 0  0.0805696159885918 -0.3318284856243449 0  -1.676779982586341 -1.677115008940511 0  2.201316380621718 -0.7683460302889781 0  1.528617922224556 -1.776760051974511 0  1.752196527797419 -0.3884649729752337 0  -1.754291384509355 -0.3928277796374983 0  -0.7723260376835661 -2.225116314377246 0  -1.333313157678982 -0.8782321401984272 0  1.946379066816909 -0.1089342843766761 0  -1.947573451448281 -0.1094138479265979 0  -0.1878347869636382 -1.889805712172119 0  1.229003045405987 0.7766959032914398 0  -0.3294587048012841 1.548955000172256 0  0.6289551472696561 0.1198106382290623 0  1.932319034862114 -1.390229826415366 0  -0.5591465125944121 -0.06387981871487419 0  0.4064880758837212 -1.77064396361979 0  -1.906505679362092 -1.410849588792207 0  -1.632934103305179 -1.036816799430561 0  1.3
[...]
<PointData  Scalars="f_4731-1"> 
<DataArray  type="Float64"  Name="f_4731-1"  format="ascii">3.4327547926692503e-01  3.3543492621957988e-01  3.4520823766483127e-01  3.4865233512165000e-01  3.2531290182694828e-01  3.4441020961384727e-01  3.3169787052796701e-01  3.3169991692775375e-01  3.7458440485916106e-01  4.0147212339229593e-01  4.2975131513658038e-01  4.1773612181803571e-01  4.4484531484718698e-01  4.1943589185210722e-01  3.8724293977196733e-01  2.6789578376489803e-01  3.6249022495235816e-01  3.9887984968064660e-01  4.2870598616225863e-01  4.4771803848570940e-01  4.3590986061670783e-01  4.3721303609888684e-01  3.9102368435034507e-01  3.5714014804452393e-01  3.3476237365750544e-01  3.3911513273314337e-01  3.3063913265555434e-01  3.3359553672864223e-01  3.3552212524571245e-01  3.3710025270599481e-01  3.5159091017210981e-01  3.4008670614445885e-01  3.4917461505783082e-01  3.4770796109118091e-01  3.5406939141635935e-01  3.5565659607614031e-01  3.4650894249838576e-01  3.6523544407662933e-01  3.4754081603306347e-01  3.5539445701914557e-01  3.6568677231727242e-01  3.5546750578102099e-01  3.5609884118342594e-01  3.6255016503073212e-01  3.5964331752168383e-01  3.5559122025911666e-01  3.7337838352124242e-01  3.5845999257829297e-01  3.5688681456805993e-01  3.5369444064983924e-01  3.5545138812901195e-01  3.6064241804772618e-01  3.5344075402295566e-01  3.6039757006880552e-01  3.5760316973346290e-01  3.4632045113324356e-01  3.4607239513073784e-01  3.5552932852848373e-01  -8.8742326131614133e-02  -3.4130140757046908e-02  -2.0168715791661237e-02  -4.1418037166198719e-02  -3.6530216917001569e-02  -3.2722421893134006e-02  -9.9832647645275635e-02  -3.6188410371096505e-02  -1.2786464688372731e-02  -3.4412542242039205e-02  -2.5060896047898316e-02  -8.2284464595759152e-02  -1.8811017523599961e-02  -7.2232802980266450e-02  -2.0832886235101877e-02  -2.4472803360524976e-02  -5.2704768766158950e-03  -1.9774336051435557e-02  -2.1171479878473055e-02  -1.9477161187439199e-02  -1.6130310395043659e-02  -2.1411404544209169e-02  -2.4541980565965009e-02  -6.8458333544064595e-02  -1.0569246965688197e-03  -7.3239617920309544e-02  -1.9778775911887383e-02  -2.3274081336748301e-02  -8.4053664545145033e-03  -7.2515055441422907e-02  -7.6678021144017908e-02  -7.7656433944601061e-02  -2.2930479741965590e-02  -2.9835677402277157e-02  -3.3650168759082250e-02  -2.9613435771370746e-02  -3.6149299922800512e-02  -3.4703437787003397e-02  -3.0395675218431936e-02  -4.0812294526746833e-02  -3.5811886234516484e-02  -3.1509739578983474e-02  -8.8426397259075223e-02  -3.9065258570024415e-02  -3.4361438956300422e-02  -4.1162691583229806e-02  -4.1432431427616455e-02  -3.7074438238389407e-02  -4.0547885661192058e-02  -4.2451933058856764e-02  -3.2926716447448538e-02  -9.3795807793847497e-02  -9.0188968088177890e-02  -7.8618769940456842e-02  -9.1622492960096225e-02  -8.3296589532688120e-02  -2.2298833369146544e-02  -8.2751428547570130e-02  -2.1076474026056249e-02  -2.9721536285467455e-02  -3.1947103270365165e-02  -9.8757642415342201e-03  -4.0242320486280764e-02  -2.4377571867245887e-02  -1.5677338450970527e-02  -8.2412037262463239e-02  -7.6777108591598822e-02  -2.1466378542878709e-02  -2.9724985264402860e-02  -3.1004081399301886e-02  -8.5416628295694713e-02  -8.3999956934702344e-02  -8.0662116720117402e-02  -2.3554024465552884e-02  -3.2676911730666433e-02  -1.7206772911962421e-02  -3.1950191457782717e-02  -3.6727230847847139e-02  -4.0382724807222346e-02  -1.9638943518273624e-02  -4.1991071838002381e-02  -3.8883386414823577e-02  -3.4711998757434158e-02  -1.0069040743759605e-01  4.1874697033342824e-02  7.9001098294293159e-01  4.1284685280292728e-02  4.2941093016485229e-02  3.4872247310318051e-02  3.3788199065212965e-02  3.2993224441107312e-02  3.3629993759392469e-02  3.9195315161984684e-02  4.0974837011272490e-02  4.6774730440204658e-02  4.8467267436784256e-02  5.2491803210147722e-02  5.3487119316600211e-02  4.3370936120674823e-02  4.4156764441044549e-02  3.7677554877900025e-02  3.9117778588894751e-02  3.1681908158789261e-02  3.1413715137135083e-02  2.1966981917688810e-02  3.1258896018170897e-02  3.8160777964536839e-02  4.2925803509393679e-02  4.1171290319838447e-02  4.2693041568862604e-02  7.7414410218489560e-01  7.7784079513006077e-01  4.2165345751703560e-02  8.0647079404669375e-01  7.6875671557353931e-01  8.1156893228170113e-01  2.8555117625582802e-02  3.5568311913898344e-02  2.8946891347667158e-02  3.4335033275445570e-02  3.4135445260567797e-02  3.2878257895383095e-02  5.3011936964688547e-02  5.3770150219361872e-02  4.1531095560597510e-02  4.3425089311388929e-02  3.4491008224238499e-02  3.3586470869426635e-02  3.0306007286419516e-02  4.9861099898639599e-02  3.0688039130529986e-02  2.8605809521392609e-02  4.8484289301393882e-02  2.9489127682593104e-02  4.1592807029739227e-02  4.4524577193904888e-02  4.0396031916170388e-02  3.8301142172775637e-02  3.9338003926295238e-02  4.8665492316726802e-02  4.9918467661762188e-02  3.6418599314806670e-02  7.6783553758515799e-01  3.7040906095102188e-02  4.1980716039007708e-02  4.4754512146772618e-02  4.0686315740506289e-02  4.3042138374817386e-02  5.0000227304859764e-02  5.0549928552226960e-02  4.2973649964370295e-02  2.9867549039406662e-02  5.4548901027047104e-02  2.8278435620562817e-02  3.0277626295657337e-02  2.9713820041613818e-02  3.9559684481570240e-02  -5.1326708318145779e-03  3.2973712622056783e-02  4.0188860368342398e-02  3.8277601635525051e-02  4.0204390295196575e-02  8.1574580020447773e-01  3.5031535539536529e-02  3.0158376007505535e-02  3.8548960046806545e-02  3.2700985777842716e-02  3.2371458123226574e-02  3.9464593283218892e-02  3.5735603259749969e-02  3.2387706655500302e-02  3.2552251286291210e-02  4.3752664536893561e-02  3.2695342912039946e-02  5.0809010835170629e-02  7.7472573756001051e-01  3.2745014989574071e-02  7.8430733071094227e-01  4.3911850685875692e-02  3.2736872468527446e-02  3.5872687425339375e-02  4.2016576545850143e-02  3.8497748763815079e-02  4.2084197471095916e-02  3.6271002818835954e-02  7.6187980953609891e-01  3.7221253065895327e-02  7.7889738445851986e-01  2.7565112073093704e-02  2.6548921115549247e-02  4.8954454979832134e-02  4.2886637178056158e-02  5.1359544304565560e-02  4.1862588332693941e-02  3.7507390641701506e-02  4.4190046967083944e-02  2.9201505859873442e-02  3.7756669320819260e-02  4.4137752819014539e-02  4.6964817725621257e-02  2.9672548631698201e-02  5.7036582360434462e-02  2.9629266217767635e-02  3.7795629709261050e-02  4.4099869326128270e-02  4.4247373567907457e-02  4.3853241650839279e-02  3.2633773710948701e-02  3.8539245467630254e-02  4.9405362542486272e-02  7.5809706720163439e-01  5.1921087029810693e-02  2.8949144404428209e-02  3.4028475795006993e-02  7.5808197577957293e-01  3.2697882328026416e-02  3.3808105891781973e-02  4.8976307158824485e-02  4.4933239867167803e-02  3.4460113772989902e-02  4.0421771115190776e-02  3.8657019137130710e-02  2.7988801121637642e-02  2.8335258090253050e-02  7.8033326719315210e-01  4.1876394644247389e-02  3.1477922063312853e-02  3.1852475720191425e-02  3.1810518641129645e-02  3.7002428444459147e-02  5.3408851361899330e-02  4.8965935287727601e-02  3.1138449519240982e-02  2.7329385930707321e-02  3.2133065298327095e-02  3.0252004729056623e-02  4.0909258687987463e-02  3.5601026815394940e-02  3.5262543757123892e-02  2.6409720597153120e-02  4.6954625609407878e-02  3.8999811989677446e-02  8.4830560216981432e-01  3.8516112344232356e-02  8.5576918817510828e-01  5.1655115576293743e-02  4.6635670299683303e-02  5.3437261231517742e-02  3.4892896818496603e-02  3.7188940441309729e-02  3.6949609189571700e-02  2.8285053679979022e-02  4.0340328933623062e-02  3.6596606709861285e-02  5.2987792661269850e-02  4.1958596873884466e-02  7.9384869230837662e-01  7.8912656932354430e-01  7.4939874271713180e-01  7.5098869660983247e-01  3.5744235660605035e-02  4.2031559831172606e-02  7.5401748671748237e-01  7.7374777134195738e-01  8.3383951337216189e-01  5.0069139705700198e-02  3.0310633515255318e-02  7.4506673069354235e-01  3.4013589988952750e-02  3.3860926912831373e-02  4.1853765632324437e-02  3.7037687374415526e-02  7.8356997853093280e-01  4.0887181339279259e-02  3.6939034120618136e-02  1.3436038501750670e-02  7.7806042322998359e-01  4.6258932963900851e-02  4.1366900105696248e-02  2.7680081518252610e-02  5.2160516282958404e-02  6.1628149863165393e-02  2.7543150300509356e-02  3.2463972932336153e-02  4.2651349400423366e-02  2.7613541008342367e-02  3.4015999716704479e-02  3.8051298331363378e-02  4.7332973250637449e-02  2.5469412516546795e-02  4.5168772255367001e-02  4.4194070497096914e-02  3.9497913891991414e-02  4.8400651940363748e-02  4.3427378296423819e-02  4.3150397963496220e-02  4.4757176508028580e-02  4.2743532839274158e-02  4.5255787843375229e-02  4.6373296531682026e-02  3.7867602802370878e-02  4.4207541602186949e-02  3.5256556485828310e-02  3.0086358069445856e-02  5.4073355525469866e-02  5.3921659526667630e-02  4.9097376298871585e-02  5.0821795789085432e-02  4.2050401548400590e-02  4.7207343336983038e-02  7.3038407109907943e-01  3.7422591031528625e-02  6.5439673450545480e-02  3.8794369249922002e-02  3.7021790787844573e-02  3.1092406709209385e-02  2.5407946675592256e-02  5.1129798862787838e-02  2.5729079642447261e-02  3.2891041116198443e-02  3.1224195415781881e-02  7.7297556389628785e-01  3.6396192107094855e-02  3.6664185002144613e-02  7.8641681367713198e-02  5.2643903865636527e-02  7.2139264600978414e-02  7.7008777718009425e-01  3.3851526999341769e-02  3.6517940793088927e-02  4.7889277229610679e-02  3.9066120361640602e-02  3.9495118158756767e-02  4.0906422248096028e-02  2.4917919835632685e-02  3.3425782592556956e-02  3.2967333239696965e-02  3.6962677252383155e-02  4.3046339030049965e-02  6.6302049869359350e-02  4.1511938638497045e-02  3.3149769915467107e-02  2.7968146227282661e-02  3.9509629675142509e-02  3.8548227866037829e-02  4.2432212484731419e-02  6.3323713693482400e-02  3.2295576653373584e-02  7.6013582832939430e-01  3.0841791003819653e-02  3.9506265956042598e-02  3.6258022748282367e-02  4.2701264159656603e-02  2.7552267450919158e-02  4.0104097619043558e-02  4.2607453648215055e-02  6.2726545647056445e-02  3.2439247776110090e-02  7.3241902611324206e-01  3.8383570355397814e-02  4.3128008008975205e-02  4.0661286215783389e-02  3.9998805263964939e-02  5.1338343652170292e-02  3.9994629471866092e-02  3.0982948162899857e-02  7.9228767762617303e-01  3.9152863137436211e-02  7.7238833964258746e-01  7.8773745391869721e-01  3.1007728700571204e-02  3.8815344850797247e-02  3.2247797193752641e-02  3.5768589186979581e-02  2.6892752826574575e-02  7.9063272998205025e-01  2.6136037843910106e-02  4.3846802608035244e-02  2.8652863956223636e-02  4.0372560747185725e-02  4.2684906496490649e-02  8.6596712966772194e-01  4.6485708312708311e-02  7.5478938326670308e-01  4.3561084413959630e-02  4.4370585856325820e-02  3.8328954670441548e-02  3.0141025722523904e-02  2.1417434339514634e-02  1.1198900978429543e-02  3.2664231509610578e-02  2.3587455476417649e-02  2.5476356464979016e-02  4.3311847404335815e-02  2.3654473479134196e-02  3.0175066995077972e-02  2.4490770950765260e-02  3.2432872638581058e-02  3.1663634073517966e-02  3.5695278504187085e-02  3.9178003257882801e-02  4.1936190368589317e-02  4.2716225797499126e-02  3.9597552050112776e-02  3.1881363964971134e-02  5.0345777649164203e-02  3.5061562691745235e-02  8.2478207639473444e-01  4.2319763544603040e-02  2.9268372692396471e-02  3.1540267924206417e-02  4.5634805226926443e-02  4.5116813025030421e-02  5.1848402716623880e-02  3.9438819208200929e-02  4.3488186590513150e-02  5.2317289832459264e-02  5.2715356018261106e-02  4.2244357303270169e-02  3.6664512883253557e-02  4.5829236090294150e-02  3.5893613584843963e-02  3.1486095126313986e-02  4.1783951506784107e-02  7.9881122987937503e-01  5.1333613083018655e-02  3.3869414246393406e-02  3.7948599382271943e-02  7.1999466519691069e-01  3.3307836999016148e-02  3.1277960170376408e-02  4.1391348657380748e-02  3.1720091648412725e-02  3.2461507335638420e-02  2.9423368434658238e-02  2.7294716772731351e-02  2.7112855574358233e-02  1.0217424072133126e-01  5.1579291895451872e-02  3.4969741314416353e-02  3.2494841354878221e-02  7.2539886533717335e-01  7.3235572027251195e-01  4.3831091390679540e-02  5.0742561100238767e-02  1.1444753842294025e-01  5.2465126897554025e-02  7.1595882715411940e-01  7.2909740085313524e-01  3.1788699000835093e-02  3.1801794108193018e-02  2.7977297669535550e-02  2.8924919261489105e-02  4.2038830501840034e-02  3.3708882142498939e-02  4.4598428326109323e-02  5.3773661957201416e-02  3.8665790852024269e-02  3.3880241864340140e-02  1.7418677156908115e-02  2.4058669722656644e-02  8.5478480297236911e-02  7.1111529427184195e-01  7.1377598182359847e-01  7.6053263931200477e-01  7.2007145916907256e-01  4.3489912279615059e-02  3.4035334490018485e-02  3.4488460660992933e-02  3.1992899108720579e-02  3.4786570357057532e-02  4.5091666561485375e-02  4.2207517805002613e-02  4.2341368022362977e-02  3.9246069323607816e-02  3.0365197143692919e-02  3.3672990570925078e-02  3.2655439358643047e-02  4.4079191641941108e-02  4.0461160603754931e-02  2.1905058481707724e-02  4.0640314631047877e-02  2.5083490357853001e-02  9.5544602729891986e-02  3.9428315111687290e-02  9.7347562296730042e-02  3.2683366747482498e-02  3.2432246811073977e-02  3.2405553194582826e-02  3.2141696092549438e-02  4.0938198925503350e-02  2.9319328695325549e-02  3.4452362347985564e-02  3.2907685447152862e-02  3.6274798062433104e-02  5.2578188320931828e-02  2.6340314025956324e-02  3.1883657495011042e-02  2.6368927313054121e-02  4.1328889581980617e-02  3.7329555518895344e-02  2.5581195166890034e-02  4.2510970931031032e-02  3.7380637513732641e-02  7.9151112840602722e-01  7.7381119774361040e-01  7.8365756417032895e-01  8.0951781186504501e-01  4.5063725196105749e-02  1.0817014802489644e-01  3.9511322927007403e-02  2.2306224929225005e-02  4.8808227144668537e-02  3.4932375856614649e-02  2.4624744091649713e-02  3.5225383903861610e-02  3.6724362193107957e-02  3.3154623449342557e-02  3.3123556077425828e-02  6.1899364064869802e-02  2.0630028017899319e-02  7.7483241903281708e-01  7.6716215497155105e-01  4.3776265523295360e-02  4.3677512719521222e-02  4.2351904080965584e-02  7.7379607281085760e-01  2.1905831188839271e-02  3.2675174442953391e-02  2.1633338934445648e-02  7.6731356487303404e-01  3.2473888497969262e-02  3.5850571198636737e-02  3.2965721303795825e-02  4.9326306663487363e-02  4.1303219749975376e-02  9.6633722172950701e-02  4.4556113289274210e-02  4.7053384020652990e-02  3.8123192414524436e-02  7.6019617023407937e-01  8.1816445311236852e-01  1.1947148232231557e-01  2.8162307124447734e-02  3.6692015211416844e-02  6.9731013362025818e-01  6.9432184474753378e-01  3.2388944497449591e-02  4.0837344128456340e-02  4.0649287429709129e-02  2.5901447835196569e-02  6.8479351668823840e-01  4.4477982865961371e-02  4.3784386684280821e-02  5.3964835252304492e-02  3.5610291710168704e-02  3.7653451511262565e-02  3.6163794980177744e-02  7.5117137470462600e-02  1.0930601152845018e-01  4.0822723867849603e-02  2.9092585609694261e-02  4.8683020739121931e-02  3.8036929377819287e-02  4.5374797465947907e-02  3.9062118168390898e-02  4.2197269135641625e-02  3.5828025002021632e-02  3.4746302024690742e-02  3.6774522479612874e-02  3.4670300121454251e-02  4.9783065044197793e-02  2.0595696079535288e-02  3.0717612752191981e-02  3.4980154927415380e-02  3.9854166440267964e-02  4.1042936854733744e-02  8.1593163345911934e-01  2.7018280207833166e-02  2.0410742781410147e-02  3.3742681304974938e-02  3.6757196550505737e-02  3.7146939422156793e-02  3.9289304735239811e-02  3.7732008264388696e-02  3.4257565528212144e-02  4.9981105525670269e-02  4.0102867553331444e-02  5.2163563573505836e-02  3.7777128754408487e-02  4.6733425032004179e-02  4.4042527147023496e-02  4.0733670030851404e-02  2.6255372598921054e-02  2.7471378500329373e-02  2.9980708839981614e-02  2.9091285672575674e-02  5.0312919445766859e-02  3.2393058715055587e-02  7.4407636049165546e-02  3.3487002508534411e-02  2.1414563288078812e-02  2.9060898658879057e-02  1.2351936455447239e-01  7.9771107185963308e-01  7.8918147664981575e-01  7.8772712732925099e-01  6.8259926654604008e-01  3.0881155034503328e-02  4.2544183624479315e-02  4.2312948110927895e-02  7.8434072309939484e-01  2.4575725547827568e-02  3.1740004744177583e-02  4.8382819935100740e-02  5.8119614992688529e-02  7.0024533791010452e-02  3.3999049447976881e-02  4.3555833193320535e-02  4.3739932704336057e-02  7.6442504028375757e-01  4.3494552438603257e-02  4.6994411378239072e-02  4.4419399906581884e-02  3.2794086235730227e-02  2.7544321965829042e-02  3.5536486569440529e-02  4.4691405815169616e-02  4.2532333370773077e-02  3.8950540160319638e-02  3.5094086281102721e-02  3.5959986396815503e-02  3.8531471952430230e-02  3.2113966909720522e-02  5.3902968210339630e-02  1.4658799159184608e-02  4.9768587011082978e-02  4.8084241763143187e-02  2.2329118254457634e-02  5.1519019178322488e-02  3.2036241193254690e-02  7.7005640567550959e-01  3.1477412991898865e-02  3.3898676010234045e-02  3.2298706461147929e-02  4.3566161341642415e-02  4.5269610842709224e-02  4.2688344753983309e-02  3.9449148950166150e-02  3.4255638977306949e-02  4.4190511078794820e-02  4.3476856775718956e-02  8.7038031924623477e-02  3.2054886279604497e-02  4.8063540812946226e-02  5.1949623082600378e-02  5.2605862773710821e-02  5.1476105821268048e-02  4.2355831141008486e-02  3.3256324779810838e-02  4.0618795613731468e-02  2.5942881230093990e-02  3.6573499920961212e-02  5.0909139199590690e-02  7.6174170307246325e-01  6.6356629452623683e-01  7.6586673823694729e-01  3.5412201278971642e-02  2.5170398588427154e-02  2.2881009147186188e-02  2.6646482179339282e-02  5.3025169858670396e-02  3.1220210291306873e-02  3.9636510756563416e-02  8.7058597754627834e-02  1.0031450856051083e-01  3.1530371104203134e-02  1.3295639636136256e-01  3.9886835996191652e-02  2.6266389039414108e-02  3.4011758147004023e-02  3.3341301089346589e-02  4.2015113146212632e-02  4.8774726093590882e-02  7.8633460463396088e-01  3.4177908831696378e-02  7.5650384703684859e-01  3.2754520691400939e-02  1.0705043932958282e-01  2.7654703307863942e-02  3.8205308257745971e-02  1.2446385809357054e-01  4.3244709331741717e-02  7.8011703287200040e-01  8.5087174158502407e-02  7.8526713346023103e-01  3.5340762418295292e-02  3.0379546171117645e-02  3.1187728019044004e-02  3.4796845103852787e-02  3.4749306452902626e-02  3.4345645195793487e-02  3.2544937061679137e-02  7.5965758936735583e-01  3.2543524242464074e-02  3.4508183028054876e-02  2.2899022510602246e-02  7.8133380982754919e-01  3.4676411523047908e-02  3.1958439444518330e-02  7.1556021236497469e-01  2.4285606807223813e-02  9.7253175410444939e-02  3.2812142412304172e-02  2.5230294984722769e-02  3.3535594218140070e-02  3.0969499472568499e-02  3.4624934088865182e-02  7.9626297800715429e-01  4.0131402614024758e-02  2.9800189994739934e-02  4.1864393872131575e-02  6.6099351808855866e-01  3.2134288289655193e-02  3.4870185455521084e-02  3.2685671100635291e-02  4.3829448474234256e-02  5.1767025861821150e-02  5.1149968289853347e-02  3.0877215405484753e-02  2.1589935334722678e-02  3.0362394887821956e-02  3.9889745947108625e-02  3.9701425145300770e-02  1.1959499041828016e-01  4.2625307837553965e-02  4.0392857538590406e-02  4.2368294937584039e-02  3.6353646550424251e-02  4.0538240354221780e-02  3.9938981538615734e-02  -6.9181377935561188e-03  3.8075318859163453e-02  4.9251037969967239e-03  2.6105544882306413e-02  3.0319736039055321e-02  2.8581399101195500e-02  4.1207149067503335e-02  3.0259797655182729e-02  3.7169933814399654e-02  3.0396887915570082e-02  9.6008845197761997e-02  2.9842960768240560e-02  8.1002229599236600e-02  2.3187322169284586e-02  2.4040970306856889e-02  4.7691572656077007e-02  4.5898456095071732e-02  4.6594451498064522e-02  2.4864236081494004e-02  4.8571326708399580e-02  9.3066249861089356e-02  4.9684662242540430e-02  -1.9368630908434355e-03  3.2956213283941375e-02  4.2642190278284246e-02  5.3213905844857648e-02  8.5005348418793569e-