<?xml version="1.0"?>
<VTKFile type="UnstructuredGrid"  version="0.1"  >
<UnstructuredGrid>
<Piece  NumberOfPoints="939" NumberOfCells="1746">
<Points>
<DataArray  type="Float64"  NumberOfComponents="3"  format="ascii">-0.9876190267304649 -0.003262748294295927 0  -0.9752406599285054 -0.1130253462230723 0  -0.9498589265383072 -0.2211672149278056 0  -0.9121607946908734 -0.3252106239745827 0  -0.8615901297155416 -0.4247328925670776 0  -0.8010484008241551 -0.5160947879682107 0  -0.733417694928442 -0.59647547819741 0  -0.6605638247628034 -0.666377312459468 0  -0.584070084218164 -0.726186341123718 0  -0.5038648363306765 -0.7770685764094183 0  -0.420415719726373 -0.8195605398141814 0  -0.3347874705807204 -0.8536061980795638 0  -0.2467018915323794 -0.8797909846897682 0  -0.1555579635507099 -0.8978984434307064 0  -0.06341211243511052 -0.9078431865338801 0  0.02953379779378079 -0.909492574809888 0  0.1224558187664734 -0.9023977441667995 0  0.2135741398849738 -0.8872354825534532 0  0.3029585647054819 -0.8637680576656649 0  0.390131818905293 -0.8322908427796968 0  0.474792815883486 -0.792535367152958 0  0.5559977500685784 -0.744642115096754 0  0.6330029783469829 -0.6885519552424479 0  0.706991346931012 -0.6229084924600204 0  0.7770930326752773 -0.5460331712478678 0  0.8406954027204179 -0.4583448305848334 0  0.8951939310318988 -0.3611880290319127 0  0.9376332754491647 -0.2584300062476083 0  0.9674490249026947 -0.1521043672918026 0  0.9845545091908882 -0.0423911003834721 0  0.9884084735169801 0.06851816492761453 0  0.979055335859037 0.1783322221570683 0  0.9570226456501864 0.285848688356056 0  0.9223146720157022 0.3907761898291615 0  0.8763135302127021 0.4900009615025982 0  0.8183570448636336 0.5841095743153482 0  0.7504789830575703 0.6705551411807168 0  0.6731588017772081 0.7489090316551982 0  0.5876325678373836 0.8180167837104181 0  0.494535870328816 0.8774662249273091 0  0.3957852321933697 0.9260829811128468 0  0.2923759575069834 0.9638562185618093 0  0.1845811632785306 0.9900135573693292 0  0.07512727951907969 1.004157675376861 0  -0.03508605034220318 1.006187468548687 0  -0.1454057436549298 0.9963205033335393 0  -0.2542467714413812 0.9744669966379985 0  -0.3589304710869508 0.9409152673980588 0  -0.4593605042013625 0.8962727725263131 0  -0.5553170011743945 0.8401244948876387 0  -0.6432206259712684 0.7745700058353263 0  -0.723945821636237 0.6992644056768815 0  -0.79513823473823 0.615864968213113 0  -0.8570343989941728 0.5237802551573851 0  -0.9071421824064194 0.4267375637512025 0  -0.9460511017137212 0.3245212640206996 0  -0.9728621028975162 0.217738259276495 0  -0.9868269161855158 0.1083218885347979 0  -2.128403911445559 0.1029511543507338 0  -2.128386675822318 -0.10295135117195 0  -2.108524920788129 -0.3078989270439886 0  -2.06896666312643 -0.5099553250132214 0  -2.010090389256768 -0.7072589490440337 0  -1.932447433765461 -0.8979559462799588 0  -1.836767099962935 -1.08027857450502 0  -1.72392422385694 -1.252503980944883 0  -1.594999613159067 -1.413039465923693 0  -1.451161891878931 -1.560372803042953 0  -1.293797124144058 -1.693163267669058 0  -1.124352484105744 -1.810124100338947 0  -0.9443915611915571 -1.910195503847434 0  -0.7556334579168749 -1.992419464703801 0  -0.5597976774453722 -2.056037960948372 0  -0.3587397507797783 -2.100483818997444 0  -0.1543532567200161 -2.125300297228744 0  0.05148330493921757 -2.130276366769914 0  0.25685083320817 -2.115347454600763 0  0.4598172592027757 -2.08069332607227 0  0.6584829568545824 -2.026603791541971 0  0.8510003400084007 -1.953575213144307 0  1.035573408635234 -1.862321677547506 0  1.210478153509026 -1.753680228980309 0  1.374096158122153 -1.628669356017012 0  1.524867893532289 -1.488454057536111 0  1.661402637174793 -1.33432975577677 0  1.782422869608511 -1.167758458476941 0  1.886807462473533 -0.9902707711929405 0  1.973572554334686 -0.803547141977621 0  2.04191163649985 -0.6093232973847897 0  2.091175890712511 -0.4093995709516741 0  2.120937702928695 -0.2056591802507048 0  2.130887241992383 -2.098457724108495e-06 0  2.120925723863178 0.2056582503337036 0  2.091178070458533 0.4093964778078851 0  2.041904485860275 0.6093131699721767 0  1.973576527385972 0.8035516843681633 0  1.886801405583501 0.9902686406047919 0  1.782417679458449 1.167747970242358 0  1.66140868171654 1.334330240532581 0  1.524862981298654 1.488457349247841 0  1.374094860864919 1.628676494443923 0  1.210486186232407 1.753695796521271 0  1.035587932721971 1.862332249745496 0  0.8510016954212151 1.953593654529947 0  0.6584804726629552 2.026592843592245 0  0.4598114800673122 2.080684293006522 0  0.2568506987936244 2.115349569947665 0  0.05149022662979232 2.130264412686503 0  -0.1543568216761111 2.125303631160073 0  -0.3587499586639764 2.100470993957993 0  -0.5598007947213048 2.05603898853498 0  -0.7556272630546426 1.992426626095725 0  -0.9443973980290492 1.910193472277031 0  -1.124352235108149 1.810133777842792 0  -1.293799401665403 1.693163156941048 0  -1.451177900742797 1.5603847844273 0  -1.595000462656052 1.413040601159659 0  -1.723919600327886 1.252495613121555 0  -1.836758296747502 1.080265642416129 0  -1.932457060627805 0.897950210600865 0  -2.010095490966787 0.7072607851730573 0  -2.068958799192428 0.5099504890005465 0  -2.108529014119803 0.3078789763833445 0  0.001715208076650819 0.09189452425104269 0  -0.0366594292676342 -1.53789930136702 0  0.5445184734264972 -1.443466491007445 0  -0.6133065556618931 -1.416332690215133 0  1.050524331823495 -1.136942703432311 0  -1.103855477131581 -1.08557180434062 0  1.420307300347619 -0.6117308683960659 0  -1.444337284550746 -0.5567563395235697 0  -0.6379092451943349 1.433558580379325 0  0.8396246450281866 1.325561541804856 0  1.560190982995113 0.04221788371245825 0  0.0302764672327436 1.565061552059878 0  -1.540603375531598 0.2728612145801192 0  -1.139448525179589 1.081513310485832 0  1.285377825310115 0.9030944595590172 0  -0.5073047833417412 0.03225880344881855 0  0.5070080025466011 0.01502626633474352 0  -0.2182367019213926 -0.3369241923413013 0  -0.2663546372553996 0.4756665438556635 0  0.2951176494347835 0.4579161015491116 0  1.381450634123939 0.4512098192253217 0  -1.483708850604308 0.7513636891442571 0  -1.665708870050564 -0.1570820475559665 0  0.2359280714029282 -0.346704022497521 0  0.4123346650097687 1.36266792114901 0  0.6458163154139197 1.652148012923235 0  0.2970532029329563 -1.736147277519105 0  -0.3789824791170304 -1.719369171846092 0  1.423831625684868 -1.035128803761765 0  0.9322383412441059 -1.497172845495178 0  -1.000554781085742 -1.450532130333595 0  -1.470248447397924 -0.9368335941294391 0  1.627194436607569 0.7346275427584038 0  1.734355464900185 0.3736257395262957 0  -0.343381723404565 1.70929379533992 0  -1.015222254015822 1.44881686595339 0  1.217006909333044 1.284893296198661 0  1.747439154551704 -0.2695754036466659 0  -1.322998089815143 -0.06611409579699466 0  1.32159877025445 -0.2655643404713228 0  -1.259913036074288 0.4677779396353985 0  0.3140114612995984 1.770994711468948 0  -0.2738302899015908 1.339181569883081 0  1.065244541830078 -0.7808383140485922 0  -1.104155185364124 -0.7298032177172135 0  -0.2925676345441219 -1.250355322164543 0  0.2452542735124963 -1.253088286252639 0  0.02178206741376353 0.6784400942604806 0  0.6779143260902922 -1.119582973979834 0  -0.5913425395267804 0.3447965967504113 0  -0.5420065952933629 -0.3069921108288056 0  -0.7311616084698228 -1.087788918938667 0  -0.7971136921408537 1.074121606354339 0  0.9392807658854737 0.9751740184757364 0  0.6112791452811953 0.3205746203172239 0  -1.727961986337098 0.5507803186134157 0  -1.817325241444054 0.1277334119850396 0  -1.090079074489036 0.7489504026150686 0  -1.45768180385815 1.081074156732019 0  -1.763373797492941 -0.5341907693504719 0  1.737940027418857 -0.6180748049241116 0  0.5447912982002174 -0.3143451147732515 0  0.005081826950898897 -0.5568526030141081 0  -0.1028718245461151 -1.834622470552741 0  0.6572427385337468 -1.728378433237552 0  -0.7911492639523406 -1.660873215865037 0  -0.0450966394657638 1.853828052316249 0  1.304027840832205 -1.299784267477156 0  -1.26983357081522 -1.333700953367853 0  1.140062068836214 0.6272801890794583 0  1.141842748424169 -0.4961532107112366 0  -1.220123776718048 -0.352180539190697 0  -0.515152789478373 1.173153764453913 0  1.857747518171978 0.075751195561931 0  1.047416082240237 1.523242175105074 0  -0.8136872964897428 1.660286325859176 0  0.674335187650108 1.091301822706428 0  1.266335430080254 0.002901657162273147 0  0.1242928144676083 1.28580407581749 0  -1.300076977198754 1.321650307366131 0  1.548571896624221 1.012652322953992 0  -0.02255661829843 -1.207580713744765 0  0.01083810268847575 0.3686953601821948 0  -1.271022614544234 0.1944998881474887 0  -0.8638750493414202 -0.8678268083058537 0  0.8576606915955062 -0.9408048731031631 0  1.641486786053305 -0.8699056807599815 0  -0.7348376543378995 -0.09695601950733822 0  0.7287889633972819 -0.1240935163836677 0  0.33777259508536 0.6930760755797338 0  0.2424857033397691 -0.06609377264905056 0  0.2816952459389363 0.1950174125554498 0  -0.006821181070844073 -0.1690809291473073 0  -0.2474151947478437 -0.03996745816448089 0  -0.2373044137793842 0.2204327722759019 0  -0.223884470915879 -0.6018658804614878 0  -0.3115945775318466 0.7078561916842131 0  -1.691224906246644 -0.786233353093487 0  0.4026755595752323 -0.5290636693560247 0  -1.477778614544757 -1.189154635269295 0  -0.4733258763557454 -1.092292694169241 0  1.192846931469371 0.2859814738886089 0  -1.646306670724055 0.937263562724244 0  -1.295719548565771 0.8968404448477379 0  0.3117164201120482 -1.49275855292648 0  -1.905930125226514 -0.1942199444198888 0  -0.5778458541345777 1.665861955002608 0  -1.494126359604295 0.5121577346484927 0  0.4266790488988731 -1.103567286469544 0  -0.6025936983803986 -1.811686873962088 0  1.528768181914916 -0.3987634623721626 0  0.126688408707351 -1.905906931235177 0  1.174162570164888 -1.502560554102683 0  -0.3856189521828005 -1.478336136769647 0  1.449018342557968 1.236496052084751 0  -1.5923
[...]
<PointData  Scalars="f_1929-1"> 
<DataArray  type="Float64"  Name="f_1929-1"  format="ascii">3.4403965507034578e-01  3.3948330195442650e-01  3.3211648399653682e-01  3.3856044138938596e-01  3.2583423705743680e-01  3.6116474740735793e-01  3.8470809833219560e-01  4.4258904419572004e-01  4.6386086111301861e-01  4.5631451740458168e-01  4.5370941298115403e-01  4.5359577059769857e-01  4.3897797527899501e-01  4.6079377820577588e-01  4.5640748390962566e-01  4.7875988617899473e-01  4.3652390235769317e-01  4.4441995985603711e-01  4.5441950783353247e-01  4.5604494999945988e-01  4.6763202064340770e-01  4.3980489433773767e-01  4.4856510745231298e-01  4.0973031022544920e-01  3.7533669700721983e-01  3.4469584747787096e-01  3.4082660811713855e-01  3.4444032300358890e-01  3.3869428041669092e-01  3.4998928947752506e-01  3.5533558902618451e-01  3.4755376333294080e-01  3.5393854598846364e-01  3.5575168446621247e-01  3.6807326088098080e-01  3.5881001873872048e-01  3.8206427848681723e-01  3.6603738140134523e-01  3.8200846137632699e-01  3.9244818255435293e-01  3.8149062782352211e-01  4.0113167847015690e-01  3.7758442622944577e-01  3.8951475973328170e-01  3.8131372711196770e-01  3.9700195594656734e-01  3.7865725459400396e-01  3.7971585560837912e-01  3.8754226722684904e-01  3.8227680224814353e-01  3.8137271307960185e-01  3.7151678646436065e-01  3.7073911373555446e-01  3.6115438882725742e-01  3.6071363730338485e-01  3.5408618959518012e-01  3.6333709938395703e-01  3.4694410759996791e-01  -3.2048481819972843e-02  -1.0305597161697434e-01  -6.0066398604570775e-02  -6.2515147669450405e-02  -6.1169989204663641e-02  -5.9240856210642845e-02  -2.6948402661951993e-02  -5.3837015875287907e-02  -2.7675135641978467e-02  -9.0753273616649227e-02  -2.1471837316355026e-02  -1.7690262667303502e-02  -8.4444666919163310e-03  -1.3536645476809307e-02  -5.8762335274407392e-02  -9.4174884449342473e-03  -4.9414132763430704e-03  -3.7570719647056416e-03  -5.6481034471588171e-02  -9.9436413580686559e-03  -4.2011370252905229e-03  -6.4488434189364854e-02  -6.8035122430997713e-02  -7.3092443020425238e-02  -2.8251698677916864e-02  -2.0906934693834235e-02  -3.8873601966923063e-02  -4.1497304731325464e-02  -5.2655052626960026e-02  -5.4553916879923683e-02  -5.4372528503337909e-02  -1.0845498127047538e-01  -6.2613158623453388e-02  -5.2372292681699989e-02  -1.0747435729974299e-01  -9.8357804065238932e-02  -9.3027529625625868e-02  -2.9709636377736517e-02  -7.8961786726648886e-02  -7.7791523729903278e-02  -1.1356687157944313e-02  -1.4393549416122173e-02  -4.4069418600598395e-03  -3.1140713660052764e-03  -6.1793409043877688e-03  8.9814924874083348e-03  -4.8335136375732980e-02  -4.8293540908895961e-02  -4.5969945643832798e-02  -4.4842208418679967e-02  1.9799746063935308e-02  -4.3190896549839111e-02  -4.9447200627692041e-02  9.8765004017320537e-03  1.6405168299924657e-03  1.6958038759391166e-02  -1.2024591582717742e-02  -1.1004751852345687e-02  -1.4414611837179606e-02  -8.0319567606852105e-02  -7.2333987983818987e-02  -2.7566669602124446e-02  -2.9652122216797534e-02  -9.1046988539182527e-02  -5.2117538362284527e-02  8.3628848257219934e-01  7.0265976930910121e-02  6.5599902196574716e-02  6.3254499329786246e-02  4.7101301513526490e-02  4.2711783297180596e-02  1.9500150855053796e-02  1.8659328777679264e-02  7.2313795251540039e-02  6.7514165290560840e-02  2.1784721270095005e-02  7.7701637876421481e-02  2.8217830873277425e-02  5.6887899614216489e-02  4.9222964931852090e-02  8.2328202019440178e-01  8.2420576178678640e-01  8.8298991426325824e-01  8.0831844637704464e-01  8.0863232281640540e-01  3.2732306841989862e-02  4.1820765251956354e-02  1.8781290031214960e-02  8.8386682714211073e-01  7.4445775626372751e-02  7.1277300571161287e-02  6.6522745126894697e-02  6.5372491539126679e-02  3.0648433883967222e-02  5.5129994238041297e-02  5.1722463606911288e-02  2.6550459934546231e-02  3.7109172357355141e-02  2.6729839162532461e-02  7.5695009017240633e-02  6.4007866325701171e-02  5.7476409331104886e-02  1.6011071183297542e-02  1.5037767522098167e-02  1.1167309933901399e-02  3.1925200800814908e-02  7.4730882879224914e-02  7.7186443787992817e-02  2.7629845743112454e-02  2.2908603885445907e-02  6.6607851307967800e-02  6.8402772000211651e-02  7.9753960698597870e-01  6.3957484032512765e-02  8.0403149215071745e-01  8.4372932053298799e-01  5.5572827230551868e-02  6.1918564142972796e-02  5.2666287585358497e-02  7.9608985215075534e-01  3.0346275680817627e-02  2.0726942141090721e-02  5.1924657831867782e-02  4.8152462947357727e-02  1.4931990964630135e-02  1.5171695599437667e-02  8.4553761041238673e-01  9.0909903614688548e-01  6.4753519633084414e-02  6.0429890204113136e-02  5.6401641755378283e-02  7.4246627151913144e-02  3.8625924569694978e-02  4.0034404153649256e-02  4.8995910002525525e-02  1.7925869056397745e-02  1.6899589363969493e-02  7.5189135945271546e-02  1.8064118149657353e-02  6.1722916454743905e-02  6.7322039898841002e-02  7.1247104581305148e-02  2.0769471262433423e-02  8.6178353891361498e-02  5.3633454521774433e-02  4.3766544897950288e-02  7.6665214026679154e-02  8.1689056803274052e-01  2.9435803453716276e-02  5.7010798045542682e-02  5.5207680697286668e-02  1.9441714844912729e-02  7.8743386682797267e-01  7.8327923760516061e-01  7.7643352628844498e-01  8.4693404392406846e-01  8.2365082881564367e-01  8.6341141697683665e-01  8.4400738700909461e-01  8.2334254571499865e-01  9.1495424290927374e-01  7.7708963081197335e-01  1.6327441497510257e-02  9.0148135373139660e-01  2.8276087882972104e-02  7.1672860123513968e-02  3.6351046600156360e-02  3.9512175279660423e-02  4.9421958765031228e-02  6.8919915799485823e-02  1.2533527704627520e-02  7.2824232358767449e-02  3.5148399522079841e-02  7.4678379038704598e-02  5.8242256934953711e-02  1.7089092350027580e-02  6.3422689551765915e-02  4.4889750799309326e-02  6.7347423895424169e-02  4.8123091624893019e-02  1.7636147915640072e-02  2.2498384194180519e-02  7.9083840348078904e-01  2.7269291066087147e-02  4.1353854383019480e-02  7.6941226303230859e-01  8.9541861469388695e-01  6.4675892506356220e-02  7.9573979658622118e-01  2.7597274824497316e-02  7.7398587132408492e-01  2.1945534459398230e-02  5.7095853060073719e-02  8.6044109096728660e-02  9.1620943805835253e-01  5.7733571763022955e-02  6.5356555267535282e-02  2.5450051493063935e-02  5.8078471226843988e-02  6.7413015191441744e-02  7.7087639030004179e-02  7.1646220495599031e-02  3.5750218669266087e-02  1.4763642777425270e-02  7.5492919812840176e-02  6.6737218506925849e-02  1.2210542205867118e-02  9.9017299390307151e-02  6.1438883704694587e-02  6.9997999039410688e-02  9.7201905949515967e-03  5.9747003966736087e-02  4.8839343199903157e-02  1.7935632328851536e-02  7.0740096483239798e-02  6.6524969319869537e-02  3.1961019882482587e-02  2.3230068739890388e-02  6.8245297053717874e-02  1.1088906738340844e-02  1.3950511776442803e-02  1.8914104538948536e-02  4.2590786289997316e-02  7.7474403978183629e-02  7.5997285362876532e-02  2.9146006815235527e-02  6.2734226301765977e-02  3.0771776301137997e-02  1.6974041063132335e-02  6.9549269101815178e-02  8.5642777689413641e-01  1.2183930794251163e-01  5.4995164815767585e-02  8.1188975921482565e-01  6.1280808753144497e-02  5.9046238575954660e-02  6.8377184256947512e-02  5.3005593529480761e-02  6.6017812858176331e-02  4.2332245084256565e-02  8.5596849425063293e-01  4.7644394773536755e-02  4.9372157828276690e-02  4.7660258944905380e-02  2.2529694134944295e-02  4.3465097654052785e-02  8.8837660251307582e-01  1.9842370265377024e-02  6.9553097366655797e-02  3.5684877365317752e-02  5.6219483156132656e-02  6.7262212210276159e-02  6.0483800844644282e-02  5.8670652464981626e-02  6.2154505253022706e-02  3.8154713586260866e-02  5.5807924086394678e-02  3.3532754655550910e-02  7.5405080534520041e-01  7.8392654441326148e-02  1.4202489225502915e-01  6.0046949646429565e-02  1.1063815151379987e-01  1.4438113478640584e-02  6.4850399044282123e-02  8.0654452543947749e-02  1.5013262730910812e-02  5.0256250523175644e-02  7.5261398720049955e-01  6.9173275984021731e-02  2.6682687698760844e-02  5.2143505886292178e-02  6.2789093765806478e-02  6.9062827259263659e-02  8.1019081110667113e-01  7.2225743007963827e-01  1.1798898851093084e-02  7.6223422277008859e-02  4.3443955416525452e-02  2.9224638544419271e-02  2.4299422424329274e-02  2.9738326321389764e-02  7.5560941055163910e-01  6.2246268864421139e-02  1.4594543407828847e-01  8.2618888875146179e-01  7.6081733979583754e-01  6.2039216613169572e-02  6.6665428736476059e-02  7.2960798499617299e-02  1.5879689874541681e-02  7.4274318107123827e-01  7.3470235804551209e-01  7.1430160506296511e-02  5.7291181946340010e-02  5.8906615460518237e-02  9.1545026239923133e-01  1.2017074867405214e-01  1.9857774697787108e-02  4.5663923184634254e-02  3.6333021685291955e-02  2.2188591390952341e-02  6.6454848876237690e-02  3.2110280606408900e-02  2.4541827231637180e-02  6.5189895723343022e-02  1.4182770040703463e-01  8.0173036763555761e-01  8.0419334084593730e-01  6.0235097297091002e-03  6.2743862405988227e-02  2.5869050547956920e-02  2.2402581922519850e-02  6.9187079334533719e-02  3.0440850189481460e-02  2.3601617888374102e-02  6.4937085944568582e-02  7.0670947551069244e-02  1.4385785686369790e-01  3.6609216671499002e-02  1.8532365554554973e-02  7.1150498055086900e-02  3.7853221477735371e-02  2.5048179611765562e-02  1.2563508872373888e-01  7.6714194524710622e-01  8.0758142129844179e-01  7.4745580252800287e-02  5.6176091696134745e-02  8.1252725572276230e-01  1.7677197402196500e-02  2.9565034148219933e-02  9.5398088895665631e-03  9.0949299863285438e-01  8.2629744650858672e-01  6.9374564947886463e-02  3.6581116627182268e-02  1.6399590620753187e-02  1.8379425182829721e-02  5.9670874304936061e-02  5.8518379981871864e-02  2.0478203678261236e-02  5.2781622790383551e-02  7.6520470277706532e-02  8.5840518065882199e-01  4.0285552560364327e-02  7.1736281473690944e-01  1.5543617397853010e-02  8.0832830176938741e-01  8.6310776078630858e-02  1.4299642791993719e-01  7.9118648082236606e-02  6.3906870937932070e-02  1.1152468343820215e-01  9.4098629029742715e-03  5.3013558294999263e-02  8.3617169592658813e-01  7.0232891712435561e-03  1.4041114366519334e-02  4.2690037028316349e-02  4.9976214678710218e-02  1.8156243075480964e-02  3.0988598910678216e-02  2.4781060125641921e-02  5.2812186565349174e-02  4.1289935177962665e-02  4.5975644589931135e-02  9.0117584273945461e-01  2.7849024200995356e-02  8.4915552219006851e-01  1.7609900260496209e-02  8.2894062220714759e-01  1.2701831326781335e-01  8.2526340324563652e-01  8.3531925639446203e-01  8.4857936721996141e-01  8.1678241897049475e-01  6.9656812779832289e-01  8.1932802695129603e-01  8.3206573686518082e-01  7.6751087727202308e-02  1.1633008800261674e-01  9.0537010167891319e-01  8.6163117179932913e-01  7.3555605128118651e-02  8.7671447337477149e-01  8.7754776215117902e-01  6.6611843551227984e-02  7.4759472680457628e-03  4.5607528386820188e-02  7.0683699081326282e-02  8.0335813601379813e-01  6.4673456621998715e-03  3.4499505602709958e-02  1.1924399297734697e-01  5.5424427493909800e-02  8.1050196121790608e-01  8.1613032695179455e-01  3.0842969442567179e-02  5.9564259148974522e-02  6.5194032241557801e-02  7.7559599302949450e-02  8.4362338300623696e-01  6.1884033577605732e-02  8.3759574652839797e-01  6.7956346067004098e-02  4.3181499598635292e-02  6.9905203692009879e-02  7.0651173224218836e-02  8.0765152206007540e-01  8.2526070768421356e-01  7.0363791148158189e-02  1.5216677684673266e-01  7.3247700057817791e-02  3.5806583307159891e-02  1.4225104636112074e-01  8.7186881654097270e-02  7.6341818252983001e-02  1.4872381262102663e-02  1.3353238813293322e-01  6.9579981884754039e-01  7.1490031412144092e-02  6.5368415847235226e-02  4.1519187131091408e-02  8.6344607729265876e-01  6.8417109236982868e-02  2.4066619990758063e-02  8.8044409900053605e-02  7.1015616017673677e-01  6.9229233067944596e-01  4.8516931279596838e-02  7.9375154507579293e-01  5.0979139664317191e-02  5.6360724329079105e-02  7.0584753160054595e-02  5.0278247258320002e-02  1.4423477541709798e-01  5.6323758115158627e-02  1.1132094260883169e-01  3.6885001298798056e-02  6.4218652537532381e-02  7.1161967721294378e-02  1.1797930605432430e-02  6.4119386138475509e-02  -1.9739988583915784e-02  6.8766967640902149e-02  4.4189885451970501e-02  7.5268567401318306e-02  1.2389398425212970e-02  8.3463051552735457e-01  8.4814927171497545e-01  1.0171012317270607e-02  4.6176980014266844e-02  2.7700958570106508e-02  2.1336580325015224e-02  2.5068829196036362e-02  1.5960529279504049e-02  6.0199868232711638e-02  1.5223232566231493e-01  6.0333008048729680e-02  5.5174645377919579e-02  3.1754267675446056e-02  8.4123816844870236e-01  3.7009702312508400e-02  7.7494463636709074e-02  7.0113729296445423e-02  5.4573328822742614e-02  5.1856193868780431e-02  4.7461337944883893e-02  5.7145003883866376e-02  3.0528951242349760e-02  1.8351121954480000e-02  5.5164387892004417e-02  1.5132594827457441e-01  1.3879778328345676e-02  4.5294012317744527e-02  7.6508895793337903e-02  1.2816722549581104e-02  6.7864377976800033e-02  5.3104741019145786e-02  3.9851387957787886e-02  8.8445829823143463e-01  1.8124648725955955e-02  9.6815417368905990e-02  1.5964188062055323e-02  8.2182626283893045e-01  2.8107328521596840e-02  7.3764293118021601e-02  3.5239090418426454e-02  4.0581308256118213e-02  7.0687318530670964e-02  8.7088598385308602e-01  4.1105495792718945e-02  1.9125146938944008e-02  6.0450455906079760e-02  6.4156332741414090e-01  7.3453376774390983e-02  3.8670107800520832e-02  2.1791831413806514e-02  6.3384744690381523e-02  8.1999157632541531e-01  8.1105873023414510e-01  2.0640458596025001e-02  7.3846503409441422e-01  6.8981200891585728e-02  5.3841946080960622e-02  6.2892083069101778e-01  8.1400908282529505e-01  -1.4261067459242351e-02  8.7343096814985655e-01  6.1744117778461549e-01  2.2871327205751975e-02  4.3751927562567884e-02  2.9853961766672630e-02  4.4557639891290302e-02  6.5621020337220182e-01  7.9865258756955415e-01  6.6082581193592754e-02  8.0543219034587188e-01  3.4928592348627864e-02  6.8394889075790111e-02  2.0436553978186420e-02  3.8864921877098772e-02  5.0636420779834830e-02  2.3125552422385436e-02  7.7875743306352418e-01  9.0383700467787687e-01  1.3261201018857765e-02  6.2561025773258783e-01  6.8552898004880652e-02  4.0082632203083682e-02  3.4487454366114417e-02  5.5695244084062186e-02  8.1358077789315947e-02  3.9474947809418730e-02  6.0738645605994998e-02  2.5241307635838622e-02  4.8082706609014016e-02  6.9822547282677283e-02  6.7216324833440574e-02  1.5904792498773541e-02  8.1037031534930593e-01  9.0410465496219505e-01  1.3790519628763112e-01  6.5715994418441767e-02  6.8294903077924185e-01  2.7414852085555937e-02  5.8478091641597250e-02  6.5065063797560899e-02  6.5204228633631608e-02  6.2629783148202972e-02  5.3112383962191360e-02  5.5253110901299522e-02  6.8673843359094142e-02  2.5928078667610426e-02  2.3274220853065724e-02  8.2069736985495134e-02  7.0234841773412188e-02  2.3750977527414424e-02  5.8357742211203711e-02  6.4892287953068128e-01  1.8125527638661033e-02  8.6159801666346547e-01  6.3704207233242138e-01  3.0425514274175548e-02  2.9465805846013157e-02  1.4602536440181712e-02  1.7387107363238345e-02  1.7055950101239271e-02  6.2250306567422897e-01  7.3620767505138102e-02  2.0248947586014109e-02  6.5242193439805529e-02  1.6355357181631372e-01  7.9567811217335849e-01  3.6438516069055009e-02  1.1243958125260464e-01  -2.5861466919641321e-02  3.1545993630564088e-02  1.3851573437406092e-01  7.8044983730373041e-01  5.3415723782312706e-02  4.2243910199905622e-02  4.7733453910021151e-02  7.8317081261334909e-01  4.1525230802764976e-02  6.1722476717200207e-02  5.1092911435783560e-02  5.8507443502465575e-02  3.7827418692102141e-02  7.8047863155567512e-02  4.0118965255645442e-02  4.3150723934472605e-02  6.4932742029909854e-02  6.3766010316489707e-02  5.7306013609835546e-02  2.7314914538607848e-02  4.5356817024529081e-02  1.2639365314228365e-01  6.7277083623230816e-02  6.7469857916245005e-02  6.7871277165018368e-02  7.6010546827819103e-01  6.2496268642810597e-02  9.8956967120405834e-03  4.5359900790208574e-02  9.5664595288904690e-03  7.9150979383385889e-01  4.1345398705168589e-02  8.3973949188512609e-01  4.8847790850902175e-03  8.6498856891315673e-03  1.6326608758879479e-02  8.5491645067617333e-02  3.3148807673515447e-02  3.0152546169692047e-02  6.8126114954366990e-02  8.1456247281078767e-02  1.3622144591809643e-01  6.3500886181744765e-02  6.8883782478102520e-02  4.7763665978042658e-02  7.7676160886834877e-02  7.4050889258487199e-02  7.0058250550909404e-02  7.3931695238989376e-02  1.1172814779459901e-01  1.9467780880915050e-02  2.3658421359732899e-02  7.8289955317142144e-03  9.7851340590797628e-02  2.0317310652602349e-02  1.3913106855248745e-02  1.9296490501623610e-02  3.4184745656192062e-02  1.2617198708403091e-02  6.2911925522839807e-02  2.2236506764428753e-02  6.9911306752686961e-02  2.2568444727803824e-02  5.5910725003972525e-02  6.1915457062867418e-01  9.2369179100019405e-01  1.6530574237457733e-02  1.7833364491607703e-02  2.4226081785527875e-02  3.0209426835109833e-02  1.7527809752710188e-02  6.9713537400907993e-02  6.2741356548295074e-02  7.0694549958018896e-02  8.2218785066763889e-01  1.0262744477843572e-01  8.0013048961724831e-01  1.1477476252311386e-01  6.2311350767489393e-02  3.6579384117270144e-02  5.2883512167052629e-02  6.0041550592659212e-02  4.5329085231800591e-02  7.9153943939734406e-01  1.7572333838270837e-01  6.2622612999987934e-02  8.7661442792786515e-01  6.5191810823600552e-02  5.8892631969313783e-02  6.0553240169829103e-02  6.5014178491680438e-02  6.6665962689082550e-02  7.0493953726216599e-02  3.1299088719368477e-02  5.9329443498182088e-01  1.9554110287722314e-02  2.0616187324091425e-02  7.4110442786399527e-02  2.2216304546365768e-02  6.5996714847724305e-02  7.4780274168948280e-02  7.5665932956282600e-02  4.6131397726339826e-02  4.1721952247291354e-02  6.1756604668403138e-02  6.2965443083503547e-01  3.6941902355530340e-02  5.8966539386071312e-02  6.0885308502689618e-02  1.2960098952726373e-01  7.9800992954941019e-01  8.1319716550843879e-01  7.9561954991287853e-01  8.7614291611393617e-03  3.2838204686962753e-02  4.1541121228883787e-02  4.9444877969029716e-02  2.4912775827791517e-02  6.9872804037861336e-02  7.3687637661750682e-02  7.1661927203113832e-02  1.1520091807992006e-02  5.9144797992503428e-01  6.7893231255421141e-02  6.0398553464744642e-01  7.9158964857867675e-01  9.1872569786587566e-01  5.0168874197390613e-02  7.0399392862663598e-02  7.8619634473532141e-01  1.8042144365037635e-01  6.5899420783001386e-02  8.1217480678105225e-01  3.6939947288710917e-02  2.6147889829811692e-02  3.6099667681623877e-02  8.0095234309014929e-01  7.5270447607849150e-02  4.6738997609850043e-02  1.8400509540551854e-01  5.8996226047629816e-02  6.0537186502031506e-02  6.4655427439477831e-02  1.8818298218106013e-02  1.7733986068109200e-01  1.7858526776659450e-01  1.5765290135925099e-02  1.8943480546915973e-02  1.5941412927531171e-01  7.0736450968190923e-02  7.1877753436898922e-02  5.3541948227284065e-02  2.9406999070481572e-02  2.2750405623540096e-02  8.3780808394361236e-02  1.0300413647979305e-02  5.6496549141620542e-02  5.3931633906917506e-02  1.1990558369162613e-01  4.8603530029199510e-02  5.6416261678342697e-02  5.2502808917922882e-02  6.2095025946661157e-02  8.0217848717766584e-03  -1.2147789858408425e-03  1.5854181855633826e-02  1.3642794186156699e-02  5.9043312147683225e-01  7.3483952958067617e-02  1.2906701143527995e-02  1.4746948846673205e-01  6.1341273106284497e-02  3.3044361361423975e-02  9.0490449517122329e-01  1.2309765083575994e-01  1.5597809253503766e-02  1.7151280243144565e-02  1.7686329062665308e-02  1.5651331661014223e-01  2.2292702595357500e-02  1.3545899594733113e-01  6.2297290002184709e-02  4.9424114952147602e-02  7.5080711148377707e-02  8.0678168252774329e-01  8.2148487422428318e-01  1.2428921190837102e-02  7.9543002939527230e-01  4.4680489357562359e-02  8.4597745152363568e-02  3.4998006636274955e-02  2.7054236882040880e