<?xml version="1.0"?>
<VTKFile type="UnstructuredGrid"  version="0.1"  >
<UnstructuredGrid>
<Piece  NumberOfPoints="1235" NumberOfCells="2353">
<Points>
<DataArray  type="Float64"  NumberOfComponents="3"  format="ascii">-1.006441607923548 0.2021906932827744 0  -0.9985098179128908 0.08940821264237686 0  -0.9772167685401604 -0.02242328390803859 0  -0.9427915361058479 -0.1315151579487446 0  -0.8961980600567346 -0.2351724446544327 0  -0.837540906533174 -0.3338672157256061 0  -0.7683068444331477 -0.424251172360024 0  -0.6896402561309829 -0.5061682153740604 0  -0.6062585520649878 -0.5757062502304725 0  -0.5223420663999419 -0.632096298953298 0  -0.4362665564046054 -0.678266160479121 0  -0.3475591185181591 -0.7155264408654936 0  -0.2574912715494871 -0.7438450543288014 0  -0.1668095232826757 -0.7633920985220395 0  -0.07836077750235132 -0.7741699179670811 0  0.006237253506531852 -0.7771307010197098 0  0.09024460528807422 -0.7727178737174571 0  0.1790683090882441 -0.7603100475299385 0  0.2698947835723112 -0.7390664951858688 0  0.3591515524754039 -0.7091980265475615 0  0.4460723735950843 -0.6708071111978725 0  0.5320553107422398 -0.6225616713691344 0  0.6150733309807734 -0.564638373729986 0  0.6955589795123154 -0.4952179424859552 0  0.7721510958047675 -0.4133989495119874 0  0.840438169149839 -0.321382584010933 0  0.897509972688701 -0.2225086707747609 0  0.9427361045868972 -0.1178280008472826 0  0.9754365820184914 -0.00919820370208211 0  0.9954147245970633 0.1033640022705325 0  1.002104287155296 0.2160999765467501 0  0.9956212880303885 0.3289392031439287 0  0.9759694937253617 0.4405771703404853 0  0.9439194020176693 0.5480525360042627 0  0.9001355020677531 0.6506919736695338 0  0.8443475463248422 0.7486425166289101 0  0.778549226546947 0.8388192209011142 0  0.7026581606463717 0.9211478164414582 0  0.6176240015294251 0.9946861946948874 0  0.5253458211863475 1.057842515058592 0  0.4260768031021852 1.110688494988213 0  0.3216826445771483 1.152082327743381 0  0.2133154038384688 1.181953114416544 0  0.1024442937264549 1.199612801081473 0  -0.009416436242817775 1.205008172106974 0  -0.1214521533851949 1.197867092596948 0  -0.2322262858683511 1.178487644828658 0  -0.3401416911605825 1.146952097704825 0  -0.4436982097298284 1.103740004542479 0  -0.5421035232799066 1.049357825579262 0  -0.6333545223442726 0.9847383424867948 0  -0.7167585595343233 0.9104324561387789 0  -0.791348531029219 0.8271997063748018 0  -0.8567240734995745 0.7351176075160833 0  -0.9105985919311423 0.6373523907186959 0  -0.9531821082540796 0.5333687496333785 0  -0.9836765732744217 0.425085919600713 0  -1.001356986559393 0.3142018614686637 0  2.527525777513762 0.0003760844943714693 0  2.519339729945579 0.2033800653269562 0  2.494857070920756 0.4050719252052428 0  2.454040416014129 0.6048662660445238 0  2.397306380596373 0.8008101295455082 0  2.325445360933204 0.9902933909156763 0  2.237839950932947 1.174932597241107 0  2.136279888027663 1.350843110066182 0  2.020622541080843 1.518406796729898 0  1.891900597768024 1.676065422764055 0  1.750858482300673 1.822901850988405 0  1.598813661943835 1.957600980460148 0  1.435437217648688 2.080364525450145 0  1.264152155743455 2.188679912676729 0  1.0835174251016 2.283459764196527 0  0.8958576527728094 2.363439375928615 0  0.7036262018871396 2.427614911883123 0  0.5052094863696946 2.476528460782224 0  0.3046620951940717 2.509113791182256 0  0.1021423867697929 2.525469317111689 0  -0.1021445166261552 2.52546723382361 0  -0.3046168039012539 2.509123278663005 0  -0.5055764442797407 2.47646817654575 0  -0.7032514834847154 2.427739408983188 0  -0.895921557100042 2.363417608678975 0  -1.08351356800051 2.283466222007684 0  -1.263748602623653 2.188870966326918 0  -1.435787836684377 2.080090865258353 0  -1.598506733080562 1.957816219038946 0  -1.750859472865057 1.822825585760211 0  -1.892133724859542 1.675780246134227 0  -2.020625236680129 1.51839869795314 0  -2.136043968202616 1.351192121604755 0  -2.23797778981231 1.174578320129017 0  -2.325447480963747 0.9902896469158603 0  -2.397307545422009 0.8008068899809715 0  -2.454183041723144 0.6044498917590855 0  -2.494722414131356 0.4058770179670345 0  -2.519362840931438 0.2029444095088853 0  -2.527523447411865 0.0004369098980637785 0  -2.519285012533907 -0.2038191144280572 0  -2.494865242040422 -0.4050119162481858 0  -2.453971371083696 -0.6053060091488928 0  -2.397585103310181 -0.799969538537513 0  -2.325097509568879 -0.9911077229280045 0  -2.238216138152348 -1.174208035535894 0  -2.1360001923157 -1.351250117422374 0  -2.02087897723634 -1.518034593708991 0  -1.891634037057364 -1.676340016655369 0  -1.750927447114287 -1.82283293785135 0  -1.59849153333759 -1.957879603513613 0  -1.436111582902241 -2.079900474377433 0  -1.263384279061476 -2.189120353421554 0  -1.0839307992825 -2.283306815621967 0  -0.8959298347271123 -2.363413713823504 0  -0.7032043190667089 -2.427748829197947 0  -0.5059384616332828 -2.476375722780547 0  -0.3046599477443183 -2.509075659842441 0  -0.1014032622677945 -2.52549607879328 0  0.1017744266548724 -2.525490302839617 0  0.3042920278781107 -2.509147070799045 0  0.5059348580570437 -2.476378697224139 0  0.7032050674499466 -2.427749200771326 0  0.8959292713749475 -2.363412645997576 0  1.083516673878278 -2.28345833594818 0  1.264152123446814 -2.188677577921357 0  1.435433220538441 -2.080366266940452 0  1.59881145094834 -1.957601067955973 0  1.750857836265695 -1.822900817249412 0  1.891896789545179 -1.676066562994126 0  2.020622823834988 -1.518407563067124 0  2.13627726139425 -1.350842583864749 0  2.237837933827648 -1.174935225697934 0  2.325243452213067 -0.9907006455036638 0  2.397424568578514 -0.8003762284767058 0  2.454052317048652 -0.6048722946852176 0  2.494754458169466 -0.4054370316360405 0  2.519290337505886 -0.2033702618129862 0  -0.003023513264980031 0.22596012812768 0  0.1113370401415048 -1.65039019257273 0  -0.7683919873348809 -1.485822459100415 0  0.9033190541880007 -1.4118690299817 0  -1.394983169739493 -0.9769445075071964 0  1.537236698269403 -0.7536659830211934 0  -1.732457026688607 -0.2283890341869418 0  1.754800399537119 -0.04010599061057662 0  -1.710736158608245 0.5331231289582508 0  1.640592279516127 0.7560160797673711 0  -1.3791474703643 1.203271870189668 0  1.233464371945493 1.366536059751552 0  -0.8094286098998765 1.669376406357643 0  0.6158949087776433 1.756037729812034 0  -0.1069661981404922 1.862367650098375 0  0.6246412859198505 -1.880770962410548 0  0.505784344105904 0.258536786985808 0  -0.5115188421089563 0.1957869275524508 0  -0.3966060220607482 -1.911250415910806 0  0.2654680453400403 -0.1824628453320978 0  -0.2288136024755691 -0.2062603223911864 0  -0.2684743739234133 0.6428409896256958 0  1.464897174731149 -1.304632830094335 0  -1.325507202241539 -1.499981980794645 0  -1.866979768090102 -0.7276736520512055 0  -0.2626830072479136 -1.294620639739375 0  0.4014181113781226 -1.246603824867261 0  1.990132970378416 0.4096290001314996 0  1.027610639689863 -0.9187236412764106 0  1.967395155737806 -0.4831525426092572 0  -0.7664401033328392 -1.035728406312059 0  -2.059655753490166 0.2371215385845027 0  0.2309317393533257 0.67362365318511 0  -1.802631254145477 1.023623488004219 0  0.2420748544795638 -2.07976842273896 0  -1.308205899262389 -0.5062040388086722 0  1.048548121554261 -1.821615030389864 0  -0.834149782858593 -1.925319051903743 0  -1.26443539412041 1.65356348179307 0  1.818974016971547 -1.07642121545995 0  1.362682898055429 -0.3292029208709884 0  1.666938589111763 1.224180959326916 0  -0.5262513723216966 2.022316632413989 0  -1.793301329526142 -1.126105074851644 0  1.552008591595792 0.327815567925495 0  -1.451337358445639 0.147845969920288 0  1.062949993417273 1.789827207656159 0  0.2910911013922427 2.067738476528495 0  -1.322917717069678 0.7635632184575967 0  1.243198392117154 0.9220920036603706 0  2.139606885016214 -0.136958208668142 0  -2.097143240770138 -0.4048182594539299 0  -1.042066060972374 -0.780048681563383 0  -0.9474507828247055 1.262887877440272 0  0.810722513165856 1.371592716494106 0  0.2247440576049448 1.599282079885346 0  -0.3993316862919974 1.558016113458937 0  -2.081634368136938 0.6066546819808849 0  0.6541568751961911 -1.006125173910183 0  2.015904453342582 0.7832273451092034 0  0.05782128366655809 -1.150108044419636 0  -1.700784285819575 1.370318490704904 0  -1.041431159628195 -1.273955973903569 0  1.098060838349008 -0.5820117429801073 0  -1.045552320315387 1.926555450329783 0  1.390868264445081 1.684266735288335 0  1.341654492890281 0.01882394543075343 0  -1.37730155994189 -0.1826587384333693 0  -0.1762436520204217 -2.185225657568918 0  1.305727752030622 0.5716559635077111 0  -0.1786183285617173 2.198159888031308 0  0.6293993734901898 2.100264002016877 0  1.381614664150635 -1.662647035368729 0  0.590496341305364 -0.08634228383180394 0  0.02320476156713463 -0.4112744294654487 0  0.5949414797455788 -1.537863131199378 0  -1.181322751022821 -1.828670521572434 0  -0.5568968937915592 -0.1604781854777468 0  -0.5966292681771156 0.5228133446430145 0  -2.042358629472413 -0.08737002018952086 0  -0.03314780152488182 0.8808873213223974 0  -1.392328331946641 0.4544710108139494 0  0.5570415159370544 0.6110135954249817 0  2.03536297577041 -0.8138799628133588 0  -1.127764409928672 1.005408528276986 0  0.4937344000249231 1.420746548336226 0  0.9738985636936949 1.09161040314815 0  -0.08299764578420943 1.510640407162518 0  -0.6421585879396594 1.348315008477407 0  -0.4560182032575104 -1.579686645976727 0  0.5335215829567959 -2.174747377903856 0  -1.516316984393328 -1.262367899048391 0  -0.6127223186316435 -2.136922040317597 0  1.646191024927915 -0.4732416930589142 0  -0.4329310875304954 -1.045589064318663 0  -0.01561401534989039 -1.928282165278389 0  1.763390040064409 -1.369270783344257 0  -1.751689331544206 0.2392528589983011 0  -1.621867409851692 -1.557595318764409 0  -0.1793482068205213 -1.671752055616898 0  1.943353277263109 1.087987029421629 0  -1.635273779593682 -0.5157262234940198 0  2.202403013997534 0.1761716459134846 0  0.88013585
[...]
<PointData  Scalars="f_3885-1"> 
<DataArray  type="Float64"  Name="f_3885-1"  format="ascii">3.4767537330352771e-01  3.4307777451662064e-01  3.2864715922662208e-01  3.4286586931875990e-01  3.1816517159230567e-01  3.3428547379918022e-01  3.3727327959480313e-01  3.5310911374681930e-01  4.1022932030056114e-01  4.4602848964895825e-01  4.3877166666744538e-01  4.2377204011924036e-01  4.2877193490068910e-01  4.1419697907149922e-01  3.3816215428793261e-01  3.3355449266276438e-01  3.4801942898322130e-01  4.1324845324466120e-01  4.4587758785139681e-01  4.2654302561773416e-01  4.2547047397496074e-01  4.4147788848849173e-01  4.2913681609908338e-01  3.6841588675747577e-01  3.3237935555868625e-01  3.4023140280122138e-01  3.4254374372371671e-01  3.3414024927959246e-01  3.3673526369812490e-01  3.4036416107679374e-01  3.4369300070315872e-01  3.4761191189352320e-01  3.5268675473856631e-01  3.4735373113458573e-01  3.4643754215212619e-01  3.5265671062343812e-01  3.6545375674214903e-01  3.5119561974337776e-01  3.6929180516199650e-01  3.6074489156824074e-01  3.5783443093438955e-01  3.7156238597606173e-01  3.5335611740169826e-01  3.5717899487638305e-01  3.7624245508711740e-01  3.5702713098300914e-01  3.6389513132612883e-01  3.7314072520462527e-01  3.6733010288250567e-01  3.6422651376264975e-01  3.5876833541087083e-01  3.6411205557425924e-01  3.5736328177272769e-01  3.5155663329549230e-01  3.5842513253440778e-01  3.3545080643477460e-01  3.5957854060853667e-01  3.4096266398449016e-01  -2.2574478247630474e-02  -1.1762246908990394e-02  -1.5615032409622106e-02  -8.3678810161210301e-02  -1.6204052538674227e-02  -1.4807340204276416e-02  -1.0732993682004406e-02  2.1633802727108486e-03  -1.2000618516470507e-03  9.0686337477938906e-03  1.4085035521823044e-02  -1.3640135783500199e-03  3.4239347155125390e-03  6.8993170357245590e-03  -6.2577444792190615e-02  1.1496355746821995e-02  1.2323766177242401e-02  1.5992494946803441e-02  1.9422813477541989e-02  1.5714741060206934e-02  1.0148647395561159e-02  2.7197984320325632e-02  2.0128422215564084e-02  1.7907871913203560e-02  1.0634620082546505e-02  -5.0070944807421455e-02  -5.3127006825191850e-02  -1.3540007154629672e-02  -1.1690495411712519e-02  -6.3214071797141960e-02  -2.1760064876912735e-03  9.7955503620643630e-03  -7.9616415322829939e-03  -8.1551599467407351e-02  -1.1030819658555735e-02  -1.4907975425759119e-02  -1.6679479766542292e-02  -1.6101615071003932e-02  -1.6397441427134063e-02  -1.6389199627930607e-02  -4.5887755484187692e-02  -1.5190137939216806e-02  -2.2803281943733482e-02  -2.1853384608871970e-02  -1.6797133766855040e-02  -1.4637142298098293e-02  -1.6371304621237887e-02  -1.1716965166093161e-02  -8.7627334309528203e-03  3.4587834704260964e-04  1.8867838387311841e-03  -3.5815392831217096e-03  -5.3002460008862613e-03  1.8163329607949613e-03  7.1239063771953509e-04  1.0770444544885217e-02  -3.3234116246742859e-03  -4.2262850648034662e-03  1.6211388716848756e-03  6.2499168140384611e-03  -7.8298816577898243e-04  1.0176130089154125e-02  5.8006991361723012e-03  -6.4568889333890623e-03  -7.1241496714011102e-02  -1.9257026582867624e-03  -6.3430788640113193e-04  -7.7472532147791606e-03  8.8785029340268141e-03  -4.6886343967560536e-04  3.1101585366817399e-03  -6.9705946346403785e-03  -1.8190183751522426e-02  -2.9920136393279718e-02  -3.1778069137901356e-02  -3.4096773450987820e-02  -8.4568768442379150e-02  -8.1039061315215086e-02  7.9250210621783546e-01  5.2853741424733348e-02  5.1731640870139803e-02  5.1677346397456109e-02  4.1521973031422119e-02  3.8642823824733261e-02  3.5112265323774525e-02  3.5283718227430948e-02  4.0351311281626279e-02  4.2597033488704646e-02  5.1458546552147967e-02  5.3570101316598805e-02  6.1620822463508557e-02  6.3258263606617626e-02  6.6059437735324897e-02  5.3410896194374509e-02  7.7814194879920284e-01  7.8029218610414197e-01  5.3665716662870233e-02  8.1030905691918886e-01  8.0857500421237349e-01  7.7012599538021609e-01  4.5179826412878162e-02  4.6553918111983922e-02  3.5756336730122941e-02  3.8684201649328502e-02  4.1222119642179644e-02  3.6994341902371428e-02  4.6048127732490785e-02  3.4532817215649408e-02  4.9719854111503328e-02  3.5574921681329412e-02  7.6921841618045206e-01  4.4335158354026648e-02  5.2563381083958916e-02  3.1118213543442214e-02  5.0217098454270956e-02  5.0689552225725139e-02  5.5459769215598323e-02  3.8259209627478856e-02  2.9840278223768030e-02  4.6550135927953068e-02  6.3187830231219377e-02  3.7902868100830926e-02  3.6937651427581771e-02  3.2424310910503143e-02  5.7569484903939115e-02  6.4179089577029641e-02  4.3132780975804585e-02  4.4493220267122859e-02  3.2456521360323939e-02  3.2538118191087262e-02  3.9597715174630163e-02  5.5017896948442523e-02  5.8338259378888410e-02  6.2594974323858063e-02  6.3152853088724731e-02  3.6819592178601618e-02  5.4435784336854483e-02  3.8290626937474190e-02  1.5674475624812438e-02  4.7021688807629060e-02  4.8385248348364690e-02  3.0659776586528489e-02  5.7327200492014792e-02  5.1580835784788059e-02  2.3598486520207643e-02  3.0074785810442692e-02  5.0614363545579230e-02  3.8627481175745867e-02  6.2660546575692436e-02  6.0764152520217496e-02  4.6175052105340758e-02  7.8466273137056375e-01  8.0138169705835838e-01  5.3047338219426615e-02  4.6956135486726683e-02  7.8787262483659337e-01  7.6047309527312834e-01  3.4283761305854983e-02  7.6312710708694553e-01  3.6065683580167374e-02  7.6340455500157745e-01  3.3377792599155562e-02  5.0473017562622749e-02  6.5816226583898546e-02  5.0642855558470715e-02  6.6263907148400913e-02  5.8702341164097359e-02  5.2669145877588724e-02  4.8885956448159053e-02  4.2979874456078607e-02  4.9197981619946665e-02  3.5584225973458540e-02  4.4528858062173909e-02  5.4220641243948001e-02  3.9001476887067343e-02  3.7355325472617669e-02  3.9990936050618042e-02  5.3243445030323848e-02  4.0322030187792693e-02  3.5582128369394436e-02  3.1848301350063050e-02  4.8507961903808225e-02  4.3600049104715315e-02  4.8495730352830287e-02  5.4193006757631626e-02  3.6484237205040654e-02  3.2011145571997857e-02  7.9003347830662141e-01  5.0139301924470636e-02  2.7693016693886553e-02  4.7364370350492631e-02  4.6172221720295538e-02  3.7814211090409042e-02  2.9573855831052886e-02  3.0195320839709650e-02  4.3100961504515797e-02  3.8021295605871350e-02  4.4149334246652350e-02  7.4513720463702637e-01  7.5042329986155443e-01  6.0347620760155249e-02  2.9030585309523804e-02  8.4604159617963959e-01  6.1344097887829997e-02  5.0451776581071889e-02  8.5216168958422656e-01  4.9271338191932156e-02  5.0828602835300926e-02  7.8143026453272879e-01  7.9561047640445393e-01  7.7673572551726389e-01  5.3143464878877333e-02  3.3009154727619193e-02  7.4167175648908978e-01  4.8098709199861631e-02  4.2579997076550143e-02  7.8221430283359639e-01  7.9601254285626277e-01  4.9171234372306312e-02  4.8640186222347663e-02  4.1534515913979698e-02  3.6795405629511585e-02  5.2036879628122763e-02  7.4716247419460968e-01  4.9278435231140505e-02  3.1448015108622752e-02  4.4719155516160500e-02  8.3470401519655768e-01  3.5153130179575588e-02  3.9929175573248668e-02  3.6856298610204112e-02  5.3370899955362358e-02  6.0613088351937551e-02  6.1458360174809205e-02  5.7822626137456430e-02  5.5476201072456120e-02  2.8916694588861099e-02  5.4176767777058057e-02  5.0071764328363300e-02  3.9265050332883772e-02  3.7283477734178068e-02  2.9985589718045835e-02  4.2675434670223091e-02  3.7981537536767439e-02  3.5093231971614715e-02  3.5361307810916155e-02  6.0384219132839173e-02  3.8749284144420928e-02  6.4021594636348461e-02  7.4989620787958067e-01  5.1586049432519487e-02  3.1919769357329340e-02  4.8258469828012220e-02  7.4391000009531361e-01  3.4675954419349085e-02  3.2599225046802849e-02  4.4907238172952113e-02  8.0394561294561828e-01  3.8519784211401530e-02  4.7631758136394059e-02  7.7193526210342611e-01  5.7197194176304554e-02  5.8680912423326147e-02  4.4850313681111385e-02  6.5959567882587347e-02  6.5072843449668932e-02  4.5811437329888856e-02  5.9292344554013374e-02  6.5315100213608229e-02  4.0046422338633834e-02  4.6070284219622150e-02  3.8314591482022910e-02  4.2213176561373356e-02  4.0570626245002177e-02  5.0419084338111861e-02  3.5166236352203714e-02  5.9524426270125060e-02  7.5532654363929552e-01  4.8359206845732035e-02  5.1475778655733002e-02  4.5012747122125954e-02  5.6318354266935322e-02  7.5297441953791316e-02  4.5999494614072226e-02  3.6152217551956266e-02  4.6546074141429535e-02  5.1848409831835369e-02  5.1444404153589494e-02  6.5017040231539577e-02  4.3047070483987045e-02  7.2438838186262497e-02  5.4486483317915738e-02  5.3353838771120793e-02  4.6987004543296830e-02  4.2635046303799086e-02  6.4780416101074517e-02  2.7255709666624668e-02  6.0197859625392397e-02  5.0607297796690452e-02  3.1530550982010234e-02  3.4383182904497323e-02  3.9973417091457596e-02  4.7941627068395949e-02  3.2808367832756175e-02  4.5535172447256925e-02  3.2841491021724116e-02  7.0206373594943888e-02  7.0342902456909703e-02  8.1903589178925706e-02  3.7624734516636192e-02  3.8852249085159871e-02  3.3913730316433736e-02  5.9214440149845081e-02  5.5734816644538894e-02  9.1564063727541528e-02  8.9687958152288610e-02  5.5514670440029064e-02  5.5795262943994166e-02  6.1775609336204428e-02  6.2958945251003540e-02  2.6566831237304894e-02  3.7700795160165709e-02  3.2070161682493228e-02  4.0796693197990529e-02  2.4634927470353046e-02  2.8089925685437004e-02  4.9478732219661592e-02  6.6166608158075249e-02  3.8555814534504802e-02  4.5539156753026513e-02  7.7297821766299146e-01  3.5055580036552861e-02  6.3785847466985152e-02  1.4517256934084338e-01  7.8583981224246230e-02  4.4673446558206473e-02  4.1441268299647185e-02  3.3945694999970979e-02  7.7324890966456294e-01  5.4252391777088925e-02  4.6375139668889273e-02  7.9826577233212470e-01  4.7570171346691399e-02  3.4081339221371083e-02  3.4923319033518828e-02  3.2901186560241970e-02  4.9488577612644406e-02  3.5886769748437491e-02  7.9320528652285471e-01  8.2575393041624301e-01  7.9572726931649584e-01  3.8543477652747876e-02  3.4858334014533768e-02  4.5245863354679845e-02  5.7088456065891684e-02  3.7336389937680459e-02  1.1128876740889053e-01  2.8651169799755013e-02  5.3702195420530750e-02  7.6234848779496059e-02  3.0372565561246786e-02  2.6245704326323446e-02  5.5474346279605291e-02  8.0115790540949383e-01  4.5998100122546286e-02  7.2567663633128077e-01  7.0423625673109458e-01  2.4090809182887939e-02  4.1727954023190947e-02  3.7300246734889672e-02  9.2498590606598222e-02  6.5129441782861314e-02  3.4986766865979027e-02  7.1131512650062367e-01  5.7111347513571047e-02  2.6599961808929987e-02  5.2069589063882420e-02  7.6885799198104476e-01  7.2489680383955779e-01  7.5627619218815623e-01  7.1625126652665405e-01  3.3743855807057611e-02  7.6875209643734943e-01  6.4928590295083147e-02  2.6748846648932772e-02  7.9522897544607751e-01  3.6061332739604920e-02  8.0456794199589232e-02  5.0243695893334585e-02  9.4829784645558773e-02  2.9399423123363098e-02  3.8920151080240127e-02  4.6954687380428253e-02  4.9288197456822093e-02  3.4918408921273299e-02  7.0375871515159749e-01  3.8623626188196036e-02  4.5409431079402832e-02  7.9763519858329457e-01  8.2250410698556053e-01  5.0797119054716608e-02  2.7999390769672738e-02  7.0172214886887174e-01  7.2623514606219941e-01  3.7411990228687159e-02  8.5085717083572016e-02  3.8289459157009639e-02  4.8859574038915977e-02  3.3638694726843429e-02  7.8493667192673688e-01  7.3048583940316203e-01  6.1068626211939779e-02  4.8074333254559731e-02  4.8424369678913400e-02  4.1111420129283843e-02  5.2840430043321993e-02  4.5185018827372019e-02  4.0015883880929304e-02  4.1198117864934450e-02  4.6336149500798569e-02  5.1418234603957218e-02  7.7306228707988345e-01  5.2570893347189861e-02  4.9554375533710421e-02  5.6432630962918624e-02  4.6784472410496707e-02  3.0961267470693138e-02  8.1078670465553837e-01  3.5535331023044237e-02  5.2199586574951204e-02  4.5655649251726924e-02  5.1779426874975609e-02  5.2837941761858145e-02  4.7376564355322594e-02  3.2031052790808111e-02  3.3532738809742342e-02  3.3422365646277860e-02  2.8295479681871814e-02  3.6469252343456757e-02  4.0778712820154946e-02  4.4214128822223080e-02  3.2018307410367867e-02  6.8562274780833576e-01  5.6894068719237564e-02  5.8342276571550021e-02  5.6737276969890740e-02  5.5850606034487445e-02  4.4724364312606742e-02  7.6579173789089172e-01  4.6551935310454713e-02  4.9471669032574182e-02  5.3959580296782772e-02  4.9511150803396672e-02  5.2290103053550287e-02  3.0952563578121921e-02  3.5479319019018588e-02  2.5782305154113644e-02  3.9570810327743670e-02  4.0677934958182685e-02  3.8318051384034615e-02  9.6364373517856566e-02  5.3901706332340135e-02  4.1151292506460720e-02  4.0464845697862767e-02  5.7516091597863174e-02  1.3145855202034690e-01  5.0057447826422317e-02  8.3280496664524584e-01  6.7208041529986551e-02  5.6821715238182843e-02  3.2912161906435713e-02  2.6782436410912908e-02  3.4167942390560806e-02  4.9895784496748516e-02  5.0173637226745456e-02  7.9581731672087597e-01  7.9123510627622784e-01  7.8391908442162928e-01  7.7656176369843666e-01  6.7568546287707276e-01  3.6024608635300555e-02  2.9263909477780271e-02  3.7974853577168975e-02  7.8462339935385095e-01  7.9162040428696989e-01  3.6077037428859600e-02  4.0542310055455187e-02  6.7332271768369367e-01  4.4983430975531119e-02  5.0551454992506829e-02  9.4931683988808288e-02  3.4311179827381813e-02  4.5555263550051003e-02  4.3650196575384000e-02  6.2796569083435838e-02  6.0742080594107357e-02  4.0093205588561213e-02  5.7187721843645026e-02  3.1036763711712673e-02  3.4562226885915197e-02  5.0487789027326625e-02  1.1804835074856722e-01  5.9779532657851200e-02  8.0079955867860575e-01  4.3350029653618692e-02  4.5105108635984444e-02  1.2863216161105157e-01  4.4941930075130414e-02  7.9704489089309483e-01  3.1505883356297046e-02  1.2298004587285233e-01  3.3193911444558889e-02  4.4042468079012742e-02  4.9799839830950349e-02  7.6341000907195344e-01  6.2403497597107317e-02  2.5134489750956151e-02  4.6648076556978071e-02  4.4108299393441144e-02  3.9675015867629823e-02  3.5713492894958024e-02  5.3518561764028187e-02  4.3818265746347111e-02  4.3685535891146016e-02  4.4568304736814897e-02  5.8043329085378688e-02  8.0395802101258929e-01  3.4828376865996255e-02  2.1762475821237155e-02  3.6666132861978826e-02  3.5511526780782496e-02  3.9230458284714644e-02  4.0424399131792195e-02  4.5761724322354522e-02  5.9534746946142122e-02  4.2106240006330467e-02  5.1058269390357777e-02  3.9343854233323317e-02  2.4485003687932199e-02  5.0223382190685881e-02  5.0228417565753213e-02  3.1174933526720301e-02  3.6768806029249278e-02  7.6634732429868302e-01  3.5560779589168111e-02  7.8861245156953241e-01  4.1970555229395495e-02  6.4618799502652299e-02  5.2641755425618039e-02  6.0578909236029321e-02  3.6751452325189490e-02  1.1008163669598249e-01  5.3187805318159233e-02  5.4287303353496394e-02  5.1140169687725098e-02  4.2811114815863305e-02  7.7792216610971765e-01  3.6180081039151928e-02  3.7280151198996178e-02  3.8754687109277312e-02  3.1054663747294212e-02  4.9195550958701109e-02  4.3672335608918776e-02  5.2862813921434791e-02  5.4333503849917336e-02  4.7060889570653304e-02  6.5278711195128750e-02  6.7941990913414485e-01  5.3938390333947366e-02  6.4941991837171836e-02  7.7522695167668820e-01  7.8739468632065446e-01  6.4860115413270442e-02  3.9829173849291417e-02  8.2188575922009643e-01  3.4714631516855589e-02  8.2582311897399474e-01  6.5718766069079421e-02  8.0333387543678403e-01  5.4155850962772235e-02  5.6467608054489200e-02  4.9463374711198112e-02  9.2991117501473500e-02  4.3055094801530649e-02  7.6467106907897420e-01  9.6197673190966074e-02  9.1277773580336410e-02  3.1277406736366656e-02  8.4517463711662105e-02  2.6855237788147631e-02  3.4999039263975330e-02  3.9263245701005901e-02  7.7215296945531697e-01  4.8021868904467815e-02  3.5385153540840153e-02  5.0392077061341994e-02  9.5493320653709371e-02  4.2215202501700883e-02  4.4885430141268536e-02  4.3841847219165959e-02  5.3517608826244303e-02  5.1349899834150184e-02  7.6214178797573628e-01  5.4189997152362675e-02  5.3955925367072971e-02  3.1105168077024493e-02  3.5305469446390125e-02  4.2648030104296249e-02  3.4138014124282863e-02  2.1382936801840551e-02  7.6743596834792560e-01  5.3414583518360981e-02  5.4888968091044349e-02  5.2896256016719732e-02  2.5540518540496708e-02  3.5551624120732872e-02  6.5124982569287182e-01  7.6871034101402314e-01  3.1526638750593958e-02  5.1464158127949668e-02  7.6385199850679453e-01  4.6399354203091658e-02  4.9997151116210385e-02  4.0157256836250182e-02  3.7539702035272578e-02  7.9427131149145724e-01  2.7234360309542540e-02  3.3050630824636940e-02  3.2346420037012609e-02  5.2540990637396610e-02  5.9885395225733315e-02  6.1707646855779535e-02  3.5132034346362466e-02  6.3204144161817077e-02  6.2525992975706754e-02  6.1454047141818263e-02  3.4369865337509090e-02  5.7968634285522007e-02  7.6520082068821027e-01  1.1243769227760088e-01  5.2000087719005494e-02  3.2822137389924927e-02  5.3890229598134019e-02  3.1648678596798811e-02  3.8925602628925214e-02  3.3323789404604350e-02  4.9540598604300747e-02  8.8184869454925638e-02  5.2464701512678388e-02  4.2492795581579840e-02  4.4493137518004225e-02  4.8498964530342498e-02  7.2170391257849609e-01  4.5922939842431711e-02  6.2386909928021213e-02  4.3607325940830513e-02  3.1635752149524292e-02  6.3450608344958537e-01  4.4061163395655509e-02  2.8616621992803667e-02  4.9675202852737882e-02  1.7421127744173068e-02  7.8547102991753870e-01  5.4384767903389454e-02  4.8025262438394924e-02  7.7948069706493484e-01  1.1328407328028443e-01  1.3385719637858126e-01  7.6852057192661666e-02  5.7852555754099363e-03  4.8001043644631966e-02  5.7289732346018619e-02  1.6599709053193065e-01  4.8356308639607389e-02  4.4189091027476833e-02  4.1257699371324716e-02  3.5387347899554285e-02  4.1033047039916920e-02  4.1173508426060539e-02  2.9824448342187806e-02  8.1450488242204810e-01  8.2428754478079613e-01  6.2379508644630322e-01  5.3176045142104958e-02  4.2871963696212254e-02  4.5658934093666989e-02  6.3759852240600590e-01  2.5219855214665649e-02  3.6268590276491680e-02  8.6678903902160334e-02  5.6618931206867659e-02  5.5977752056459877e-02  7.5922495367855625e-01  6.0408931693508472e-02  4.6448899870632950e-02  3.5745288110609348e-02  5.9381676850957917e-02  -4.6090222017795036e-03  5.4148793598266513e-02  4.8699247625798317e-02  5.0868097793458751e-02  2.9270497059927753e-02  5.5003647714315117e-02  5.5521877910774328e-02  3.0949225191622364e-02  4.5827361463481840e-02  7.1173770692117233e-01  8.3067890931376953e-01  5.4010389562111481e-02  -1.8458283005241241e-03  2.3900002020058157e-02  6.3014549535161321e-02  2.4167828483170801e-02  4.3060155731612558e-02  7.7322399274685949e-01  6.0501522218242854e-01  7.5783619732442820e-01  3.7520111043116117e-02  3.5775963436844541e-02  3.5821673748666460e-02  3.7351868614801262e-02  4.4230740075340648e-02  3.5433979118264229e-02  6.3568252907652237e-02  3.6062358121073571e-02  5.2672493427984954e-02  3.6132522475185898e-02  3.6582672697529107e-02  3.8088000191806783e-02  6.0320129526588842e-02  4.8380241531860921e-02  7.2921339779264760e-01  7.7371015546157418e-01  5.3309781118624854e-02  5.1951540332421185e-02  6.5962083894669551e-02  5.9906775121188853e-02  4.4958999815555900e-02  1.2143090088830868e-01  4.9070002559665288e-02  4.5637647623695453e-02  5.3251187134070690e-02  4.1223107586780480e-02  4.7298169304579508e-02  4.0540608051935212e-02  1.3578147988028952e-01  2.5138420741208665e-02  9.6467381856421244e-02  8.0161504496971947e-01  4.4078410247389566e-02  5.1525277877345496e-02  7.9964896775604022e-01  6.4154267390692271e-02  5.0423492333296856e-02  6.1017150676497600e-01  3.3665320569696386e-02  4.0347471230075649e-02  3.9207386063681175e-02  6.5334205959821423e-02  4.8768573934026727e-02  2.0050868911445842e-02  2.5288729092603074e-02  4.4832645462947712e-02  6.7212835087649681e-01  5.2327639745867474e-02  6.5938824075758795e-02  6.5649247281910073e-02  6.4435829934652883e-02  5.6635971951600375e-02  4.2981