<?xml version="1.0"?>
<VTKFile type="UnstructuredGrid"  version="0.1"  >
<UnstructuredGrid>
<Piece  NumberOfPoints="788" NumberOfCells="1491">
<Points>
<DataArray  type="Float64"  NumberOfComponents="3"  format="ascii">-0.9608419535191308 -0.05372834939311266 0  -0.952110821220175 -0.159058694398643 0  -0.9312138831910198 -0.262278645552016 0  -0.8986496063973161 -0.3624673587106744 0  -0.855007442493161 -0.4580628787104887 0  -0.8014343616942904 -0.5470447085754268 0  -0.7400461280450535 -0.6277141428251299 0  -0.671645118224251 -0.6998927736268927 0  -0.5974678673704876 -0.7634299688795465 0  -0.5174701517166097 -0.8188286570231977 0  -0.4321864793445075 -0.8660965443422599 0  -0.3425298475766013 -0.9044992034245819 0  -0.2502708526403669 -0.9337893817985825 0  -0.1550505256619179 -0.9538894419775978 0  -0.05797404266477883 -0.9644315113327293 0  0.03899714664174363 -0.9653764363782884 0  0.1357002565620755 -0.9567942389229132 0  0.2309086175632722 -0.9388287873299512 0  0.3243591640681095 -0.9113403616807062 0  0.4143019104742822 -0.874791068915345 0  0.5000858742943923 -0.8296062196760348 0  0.5814235440499659 -0.7757603540482718 0  0.6572286469890328 -0.7136096437204581 0  0.7270556084482277 -0.6431104783598005 0  0.7898631880853675 -0.564249905429601 0  0.8455823159765686 -0.4762358610114874 0  0.8911456598735034 -0.3821267126397996 0  0.9257694702882738 -0.2831146592716776 0  0.9489276951761664 -0.1799235588147511 0  0.9600677080210807 -0.07518571883957795 0  0.9591104489411556 0.0301484062195868 0  0.9461091569702211 0.134472174168768 0  0.9212967213617733 0.2372849242071635 0  0.8850611112558958 0.3358168614484616 0  0.8382986502012256 0.4295776648972829 0  0.7809226782083748 0.5180319337331294 0  0.7140152414578312 0.5994787025311492 0  0.6387164407190442 0.6729939237290248 0  0.5554205411312323 0.7381265289390447 0  0.4659276409756025 0.7935254205808699 0  0.3709012181302084 0.8389526964493639 0  0.2715376906406533 0.8738969395854421 0  0.1685701559450713 0.897769109321672 0  0.06383505706690108 0.9103828872242945 0  -0.04158918385708902 0.9114872470447756 0  -0.1468723249856463 0.9011519144973632 0  -0.2503969858571762 0.8795176702431929 0  -0.3505512914027357 0.8468911524668182 0  -0.4468861593208915 0.8035569060128549 0  -0.5375005377498941 0.75023238489914 0  -0.6222341229386399 0.6870550786291004 0  -0.6994515565069805 0.6150509693534922 0  -0.7679908876859505 0.5353266783109749 0  -0.8271735208815819 0.4486090345024452 0  -0.8765412867335461 0.3555808866332645 0  -0.9147975511258829 0.2578722951168058 0  -0.9419778338584678 0.1562201608993468 0  -0.9574533426680745 0.0519094291737831 0  1.983462128128666 1.213218518386933e-06 0  1.973285469420461 0.2006619497969757 0  1.942861728632967 0.3992666211343949 0  1.892500596614451 0.5937730132261552 0  1.822711672081767 0.782204788638889 0  1.734300875448435 0.9624487443842678 0  1.627932755503583 1.133074511820338 0  1.504872119984221 1.292077614233225 0  1.366541752678399 1.437598792146899 0  1.214197837395932 1.568384532329637 0  1.049032657671486 1.683339547238916 0  0.8736560016538009 1.780681485787292 0  0.6887069399080604 1.860049599870885 0  0.4973233627773844 1.920096654920433 0  0.3002125426649903 1.960608781963774 0  0.1004611095358006 1.98091818330618 0  -0.100319878616171 1.980920526223708 0  -0.3004921435372125 1.960565094831353 0  -0.4971603215258368 1.920145670858465 0  -0.6887322475303107 1.860042352447868 0  -0.8736350594052047 1.780693066650788 0  -1.049164460366194 1.68326697915899 0  -1.214107711982766 1.568462077729331 0  -1.366431415186158 1.437695544261684 0  -1.505075560863823 1.291837615225468 0  -1.627850018681937 1.133225550353527 0  -1.734217802822479 0.9625669580904238 0  -1.822770633623827 0.7820556981857542 0  -1.892498324933784 0.5937731228251464 0  -1.942825681028627 0.3994053755065545 0  -1.973293202665518 0.2005193685741974 0  -1.983460043770974 -3.668731108896548e-07 0  -1.973292086706402 -0.2005241357720633 0  -1.942823363859522 -0.3994095368202198 0  -1.892502395277603 -0.593758232929163 0  -1.822716528835992 -0.7821921191263415 0  -1.734233321301003 -0.9625773666974533 0  -1.627952903320098 -1.13308934639955 0  -1.504968875983098 -1.291972988751627 0  -1.366541894340405 -1.437599061753863 0  -1.214074325556853 -1.568485292812717 0  -1.049302289830075 -1.68317131534754 0  -0.8734940840372629 -1.780739572271921 0  -0.6887270360360591 -1.860042278480697 0  -0.4971779145907628 -1.920141445561606 0  -0.3003514098533588 -1.960592508554033 0  -0.1004428125354352 -1.980918354067086 0  0.1003149531488854 -1.980919691306293 0  0.3003471537711909 -1.960567290288659 0  0.4973242577469041 -1.920095331865624 0  0.6887057086245076 -1.860048693163807 0  0.8736322566508189 -1.780693253669446 0  1.049165793221292 -1.683264020843785 0  1.214090292336688 -1.568475344187538 0  1.366552742344549 -1.43758653612038 0  1.50486831380842 -1.292078525985365 0  1.627931421269505 -1.133072611846059 0  1.734309081300546 -0.9624229090652019 0  1.822641334723472 -0.7823443399451864 0  1.892479008202895 -0.5937716427094758 0  1.942882634428793 -0.3991245574102461 0  1.973281841271926 -0.2006826071153413 0  0.0014258264874504 -0.00841672440780237 0  -0.1475063996569799 1.441045481018236 0  0.4958517860784931 1.359104978664052 0  -0.7101866477578616 1.268596795197667 0  1.039727274151183 1.017872433197667 0  -1.161391308599063 0.8872820684343281 0  1.385535265055768 0.4758967245517917 0  -1.425243482644902 0.3546661940391765 0  1.473793310829767 -0.08632970010745486 0  -1.458702576167893 -0.234517776190224 0  0.5816315483883526 -1.36441776739331 0  1.325786738022865 -0.6596067595163755 0  -0.1695269194591826 -1.471131444121163 0  -1.282041284311542 -0.7311467871288345 0  -0.7168389781956751 -1.300281363854895 0  1.000307036200779 -1.092993183578003 0  -0.4789157286873468 -0.09741032579124799 0  0.485300174487556 -0.06108227378789251 0  -0.298073406159378 0.3521808151729608 0  0.2784753372093756 0.3665991001318675 0  0.1967805015269559 -0.4381529340453197 0  -0.9687848103139935 -0.9887407769681344 0  -0.2349159603762234 -0.4566187202720068 0  0.2264799296143546 -1.558937140904523 0  1.382206538531711 0.8524664544538265 0  1.086645847024666 0.67153279493805 0  0.1989020378449005 1.597703990653465 0  0.1578948434867434 1.24674844810083 0  -0.4919382469505693 1.56001058635895 0  -1.068580385988767 1.239305943945103 0  -1.47345873260101 0.7146290973124824 0  -1.638734084647625 0.07589989209308073 0  1.587542848242146 -0.4177966809394617 0  0.947953522658917 1.354011204235819 0  1.628641986279374 0.230873143330356 0  -0.4942031506624378 -1.579630758777593 0  0.008673967524539675 0.5809024715549204 0  0.689821213082857 1.061180620867984 0  -1.04043486344079 -1.300240650472963 0  1.32123722806211 -1.025597361345719 0  -0.5990380352818029 0.1979850513379124 0  0.5151770877774483 -0.3868801439623158 0  -1.562150655637116 -0.5455261718664639 0  -1.291833723408417 -1.050453219417424 0  0.2894793926629485 -1.252516978281535 0  0.5824367128482024 0.2398449141172763 0  -0.3990197207323513 1.166803336658864 0  -1.15156407584267 0.5463717274457722 0  1.253307493670054 -0.3424195447209863 0  0.9676656831428941 -1.392668625391435 0  -1.314268922648607 0.0474665359424099 0  -0.8301098544357681 0.9492986084168101 0  -0.5436664970080306 -0.3933384294900902 0  -0.402366887631557 -1.225918661101615 0  1.254185099890174 0.128480044811643 0  -0.01148020732129515 -0.6541155494437783 0  1.021886305441532 -0.7817332664960382 0  0.7227500254744532 1.537000207199308 0  -0.008121502576590077 0.2978959102272549 0  0.5006405983666892 -1.636832246572189 0  -1.206336169506524 -0.4325928589789059 0  0.689024606456724 -1.082529637520333 0  1.29559490901619 1.116160602698057 0  -0.1244209585914528 1.169663377303642 0  -0.1750864139530576 1.716313180165401 0  0.4076582384745928 1.103540022117027 0  -0.9042314481730572 1.456783176553452 0  0.01377248466858366 -1.254888762539943 0  5.266506178749531e-05 -1.721407457416815 0  0.8562295086503856 0.8228503984814156 0  1.578728715177807 0.6696211723381649 0  -1.412398260857307 0.9772936067744808 0  0.4698433611305363 1.647736101718745 0  -1.641904408293542 0.5127313389183875 0  1.140728378036994 0.3776123343079604 0  -1.173176073335264 0.2771506851763255 0  1.713358953102717 -0.1885391891303972 0  -0.9604928479967166 0.722266916694187 0  -0.6979152193317971 -1.032063381711022 0  -1.698157846395368 -0.3283889643057055 0  -0.2575236911151155 0.6073196751424734 0  -0.02592518350424206 -0.2785745689505238 0  1.589013166803188 -0.6730896238845226 0  0.7643999192104269 -1.549315450921691 0  -0.8458184773119447 -1.525832002264908 0  -0.2737780544772345 -1.707360762627708 0  -1.489267480767722 -0.8865676052118646 0  -1.003329342261884 -0.7268718107090714 0  1.203280565314338 -1.246978215289551 0  1.0941706368385 -0.5440347290395356 0  -0.7153615549517693 -0.03024816591838566 0  0.315527885527127 0.604256138139172 0  0.7236933014025489 -0.01837427736764945 0  -0.226501246861306 -0.1254717932539846 0  -0.2138482317921958 0.1216809504603748 0  -1.20905496999749 -0.1848373724476184 0  -0.5310245611309954 0.4386541642526486 0  0.3861292948507081 -0.5982108003966012 0  0.3240517885449246 -0.2344796458754488 0  0.2556915751952278 0.09891219076510391 0  -0.6108297977635208 1.050003910425709 0  1.233039051457154 -0.1091978116099744 0  0.8442220688926091 -0.9228138489855352 0  0.7221455326246863 1.303593501627288 0  -0.4236362454756608 -0.593615733256218 0  0.4905129373655227 0.4514734190080033 0  -1.292650933294063 1.223210616101462 0  1.512363001948155 -0.8914555582077424 0  -0.7039731529593369 1.635352018933289 0  1.723203478704103 0.4405512368163531 0  0.4603522292560949 -1.106894486200723 0  -1.778995659330238 -0.09502518324051232 0  -1.763199968822738 0.2647588175919936 0  -0.2281989456885495 -0.6960383897761027 0  0.6428414751922465 -0.2172683531603022 0  1.174343390748108 1.314351709742846 0  1.666532448092583 0.01972122640824212 0  -0.1951408409411
[...]
<PointData  Scalars="f_1167-1"> 
<DataArray  type="Float64"  Name="f_1167-1"  format="ascii">3.8272013165411173e-01  3.8529456791751809e-01  3.6989140738839743e-01  3.8900720194013017e-01  3.9022887924964184e-01  4.1628368633551044e-01  4.6251140982597921e-01  4.6790693338452416e-01  5.0721038503021643e-01  4.9994540258995268e-01  4.7903504900738841e-01  5.0064342635766035e-01  5.0325727970672540e-01  5.0347204020411673e-01  5.0793001425731565e-01  4.8850672164521647e-01  4.9351270202403469e-01  5.0398930464939506e-01  4.9507702704523632e-01  4.9536671500280599e-01  5.0024636238319786e-01  5.0673958071178837e-01  4.7871487014472885e-01  4.6746700518186107e-01  4.0621070571683998e-01  3.8297142158460346e-01  3.8893183341996540e-01  3.7488536822333568e-01  3.8291780254056673e-01  3.9394358613611047e-01  3.8257958313590368e-01  3.7270826407480645e-01  4.0651022466376285e-01  3.9842126774220737e-01  4.1494553989218264e-01  4.0321508351872565e-01  4.2181521523595333e-01  4.2191126935980899e-01  4.1150927424008249e-01  4.2627952147352571e-01  4.1419424405365923e-01  4.3815891305922494e-01  4.0711148689666599e-01  4.2855364797213469e-01  4.1882291085575224e-01  4.2959702678782646e-01  4.2401074398109440e-01  4.2118611791463040e-01  4.1878656035552392e-01  4.1457096554594325e-01  4.2614106117534012e-01  4.1160215113955723e-01  4.1570030516398671e-01  3.9502277609462455e-01  4.0591412331451948e-01  3.9867288656559935e-01  3.9592329097390244e-01  3.9537148821380752e-01  -1.1271593154030327e-02  -7.3138843283412740e-03  5.1998263023104643e-06  -1.3193180345429903e-03  9.4317937295574621e-03  2.0503703789002719e-02  -7.2456175721773458e-02  1.9608102805531595e-02  3.2628403750593150e-02  2.3443473534127443e-02  3.0449530634711289e-02  3.4246770561025618e-02  3.5154476774192651e-02  3.1334447398461897e-02  4.8589738779365559e-02  4.5438848523798307e-02  3.7715689900153088e-02  4.0779710598434424e-02  4.4641121198922613e-02  3.4606632191712942e-02  3.1210616295348392e-02  4.1036519536768894e-02  3.4062880593777697e-02  2.0791707205739075e-02  1.6660354208765372e-02  1.1380397613668913e-02  -5.4529777599209139e-03  1.1475902574240410e-02  2.4488859928146569e-03  -1.1730851087416252e-02  -1.7638459385274224e-02  -1.3073498286647705e-02  -2.9169499383874538e-02  -2.4853933444846973e-02  -1.8363442472839366e-02  -1.6140943225632209e-02  -1.1777763118010379e-02  -6.2720006091043943e-03  3.8495052598718532e-03  6.6556320369334258e-03  1.3012464191026472e-02  1.2521031591602930e-02  -5.6419232465839131e-02  1.6636539673693249e-02  3.3813485359812059e-02  2.6845796761879721e-02  2.6267442905354661e-02  2.8908521107114647e-02  -3.7897114531283228e-02  1.7854034198838308e-02  1.7608869182835170e-02  1.5549317264301608e-02  2.5422520670624820e-02  1.3484017118038380e-02  6.9322644331672829e-03  -5.1605573755277943e-03  -9.0264834587956436e-02  -2.1325645879193444e-02  -2.8300821424067084e-02  -2.4275433514264540e-02  -1.6817559011199690e-02  -1.6730260165737094e-02  9.1468838827362564e-01  9.2529441788414116e-02  8.8581619614230833e-02  8.5875717374120558e-02  7.5490906040932337e-02  6.9853536645623229e-02  5.2934793851160143e-02  4.8399292396329834e-02  3.4675697545443050e-02  3.1557585153556875e-02  7.3453620357289084e-02  3.4562931874393563e-02  7.8485434170270318e-02  3.7788909636728020e-02  7.1661363654024396e-02  6.0504927845133942e-02  9.0488274943140568e-01  9.0080566689562369e-01  8.7840532833459739e-01  8.7909039828169966e-01  9.7264181081856915e-01  5.9089846729738514e-02  9.7484678669579794e-01  7.5733363105696838e-02  6.3747439704561454e-02  6.1991960254903757e-02  9.0303214945833973e-02  8.7253166328017800e-02  8.8521207892158615e-02  7.7364098454968722e-02  5.7280580351058458e-02  3.7507741321927260e-02  3.0029751144499503e-02  7.9896410210824345e-02  4.1579287386908553e-02  7.2620793995142374e-02  8.6839649825989040e-01  8.4073891018700789e-02  5.9356611818748975e-02  4.4453263153134331e-02  8.7136348257502494e-01  9.3488436199448399e-01  3.0245981133932922e-02  4.6249789196284113e-02  8.0216542081772632e-02  8.7028840061796198e-01  8.6424796870879506e-02  5.7741782082074554e-02  2.8317313618901208e-02  6.1578338090862557e-02  3.9412824805197061e-02  8.2822381646568424e-02  9.3250749671337374e-01  7.7512357653917868e-02  4.1283302178066354e-02  1.0062638965101900e+00  4.6188268029539382e-02  8.3547241115984688e-02  8.8750238215180732e-01  6.9823910825352456e-02  3.4241015470265562e-02  7.6490853687188665e-02  6.9016563587818963e-02  1.0392622396527809e-01  8.8521471202541599e-02  9.7598863639176872e-02  8.0482092897929305e-02  8.7327655703465887e-02  7.2275923011855828e-02  7.7171691870657144e-02  5.2920944833109738e-02  6.3193661574546103e-02  8.5678092091457700e-02  4.6855894713567658e-02  5.3233118066696866e-02  4.8597234177902536e-02  2.9185738294168165e-02  7.4295920635839216e-02  8.2852344200390213e-02  2.7720339941721517e-02  8.4520076959668999e-01  9.4913158049230706e-01  2.8787259420927525e-02  6.5708618274216188e-02  6.4386982551390429e-02  7.1492711409067447e-02  3.4771354212310951e-02  5.5444101018210908e-02  5.1493597346822358e-02  2.9723132705303652e-02  8.5733249493719721e-01  8.3937784095690915e-01  8.4939755415421136e-01  9.2433463303438845e-01  8.9893216781596619e-01  4.2862786319311466e-02  8.4587080761274980e-01  9.8216431715706665e-01  9.3450754384774903e-01  8.9954085512822324e-01  9.1292757411858466e-02  3.7924920170298512e-02  7.7665387254927498e-02  8.5140789204470532e-02  9.7673924101386878e-01  8.5434154289015096e-01  6.8946678358609487e-02  3.3796521682141506e-02  8.2664416432135276e-02  4.2617551785376628e-02  9.8527845852744309e-02  2.8323059048666416e-02  3.7336714174947820e-02  9.8771836266264990e-01  8.9015134683449038e-01  7.2504590768221716e-02  3.5439474040629353e-02  8.7263546395730793e-02  1.0021719144185648e+00  9.3635208991791963e-01  6.9447593462899054e-02  8.5421862092455003e-01  6.9121750417893979e-02  7.5542078420693354e-02  7.8673813538120765e-02  8.9839672871858234e-02  6.6108496365203495e-02  4.7175975201979595e-02  8.9027910041000247e-02  8.6946816294518545e-02  4.8189209827981291e-02  8.9241801952932143e-01  9.3121934772467840e-01  8.0267408751577382e-02  5.6247787085004324e-02  4.5001856830481815e-02  8.4197058669364180e-02  7.0158750418007468e-02  5.0342564790521807e-02  8.7603965479731649e-01  9.1976512807822527e-02  8.3508912962938331e-02  8.9875841398449813e-02  7.6833306077073463e-02  8.1860213667733925e-02  9.0518359976820423e-02  5.9066393306540031e-02  6.1589892090244312e-02  5.4662855855466000e-02  9.7693191344239239e-01  6.5918062786259099e-02  4.0157078410510971e-02  9.1374669837463646e-02  3.1198243986847389e-02  8.5328286996499095e-02  8.2353339120017660e-02  8.5480153879306242e-02  8.1207657605334693e-01  9.0731645160383095e-02  8.2368837216087987e-01  1.4854444043502574e-01  5.4917491229987368e-02  6.1553731516121410e-02  7.1729283705829511e-02  7.7619543526439239e-02  8.8834305520520407e-01  7.6259133924219930e-02  7.4849338627631878e-02  1.2122119460078871e-01  5.7062791983079099e-02  4.8234574091326497e-02  3.4653998101975121e-02  5.5118027150676846e-02  3.7974600872896259e-02  7.0293435687115116e-02  3.1969829599365431e-02  3.1796055141799014e-02  5.5071388694356814e-02  3.4186645280514683e-02  4.2458112270596274e-02  8.9584001650742207e-02  3.6135960275702129e-02  2.3462514942314928e-02  2.2774972768926351e-02  2.2503290429745207e-02  3.1456058121476137e-02  3.0351866431982972e-02  1.4067814889474042e-01  1.3239384024484649e-01  1.1653952722858091e-01  8.6266130531577404e-02  3.3963365038921771e-02  4.4336790703527182e-02  8.0177138153368022e-01  1.1204870785324257e-01  7.5659233628668346e-02  8.0434205648095680e-01  2.6610718714694073e-02  1.2323948034068059e-01  8.0127571134899800e-01  8.3995904497486507e-01  9.3776738326402020e-01  3.8823810332165788e-02  6.4766087796726962e-02  7.1964460372015648e-02  4.7618886985246044e-02  6.2051570411495859e-02  7.4043660982784795e-02  9.1538576384752723e-01  7.0866435587206927e-02  8.7777201675510397e-01  8.2084102842165019e-01  1.0769729697093579e-01  6.5722153944405684e-02  7.7397283644310533e-02  2.9767641196834987e-02  3.0651984872942142e-02  7.7797560544145536e-02  8.7567628550236376e-01  2.1828779394392258e-02  7.5181602202248829e-02  1.4524611048223698e-01  9.4766647819355254e-01  2.6954070395104598e-02  3.0512386789530634e-02  8.0619149710496552e-02  9.6007460665222222e-01  4.1944122928847388e-02  7.6832151694599546e-02  8.9012872744117444e-01  9.6673408561661034e-01  4.5242394845564748e-02  8.3837143690720289e-02  6.7333069104594023e-02  1.4682456988045797e-01  3.9537455526424778e-02  2.5656015506960724e-02  2.5650462203930299e-02  6.2463639565658619e-02  9.3494445433172813e-02  1.3656970784777200e-01  6.6818032169366604e-02  8.0889792342875633e-02  7.9776034233221799e-02  3.5160467620059657e-02  4.0546486786541387e-02  8.7959442187614589e-01  9.0886522068428277e-01  9.6309229406815322e-01  1.2403480641889851e-01  6.7863713072794304e-02  9.1867433770481399e-01  4.9691305493654747e-02  9.5972834361514570e-01  1.3691919731853905e-01  3.2035479340020753e-02  1.4410076421553461e-01  3.8629023344861839e-02  6.3557293203897552e-02  6.5890328452483118e-02  3.0929939050233807e-02  4.4483010444934731e-02  4.7681000469361058e-02  8.8508490582242827e-01  8.1570522519218966e-02  1.3218253595781110e-01  9.2755973906015005e-02  7.8436666875052119e-01  7.5936969682073019e-01  8.6545132543974790e-01  7.3916003928820723e-02  5.1089931176776605e-02  7.7420087156506431e-02  6.0032782482104384e-02  8.9965736444082733e-01  9.6533096149541961e-02  1.0483701616900094e-01  8.6873280315071036e-02  7.7569137623935913e-02  1.6710960582831780e-01  8.8168608548282656e-01  9.3383091116554107e-01  7.5274971667655566e-02  5.2044587795453540e-02  3.4725870552960982e-02  9.0788635009942109e-01  6.7943858010092797e-02  9.0257368739126886e-01  6.4353861630003478e-02  5.5443312869127188e-02  4.2357308595581872e-02  1.4587671670681518e-01  9.9587426664549816e-01  8.1409224497669042e-01  6.2882256744294540e-02  7.5369905735900092e-02  3.7486773122104203e-02  7.5560438816402842e-01  2.3555237325544265e-02  8.4783169250381943e-02  9.1088216029175328e-01  9.1097956642138225e-02  6.5762348921011043e-02  7.5822972655677001e-02  1.4870067501331333e-01  8.8550313256002344e-01  5.1366796413601680e-02  3.2065832972332717e-02  8.6465382953887837e-01  8.6770994492768691e-02  8.3160736999252305e-02  8.8138347118440374e-02  9.4869189269031462e-01  6.3617877277324764e-02  7.2775992048171367e-02  7.3595409922692340e-02  3.0471469120855341e-02  5.7604737891294673e-02  1.6891673440204780e-01  8.1003865674229222e-02  8.8715833070976080e-01  7.4162345850589395e-01  6.6885276418479481e-02  7.5751090267654128e-02  7.3212966449193950e-01  9.0471837738542255e-02  4.9398999256322039e-02  9.0360399187405543e-02  5.8400522488019246e-02  8.2546572844650765e-02  8.4352705586865806e-02  9.3068981286288222e-01  9.6520183151157124e-01  7.6665334297899360e-02  7.4098753085017205e-02  7.3946921906363233e-02  8.0401782712923558e-02  8.8718220648918003e-02  1.4217967035963425e-01  9.4687751352125413e-02  1.6999822951908070e-01  6.7996167221671025e-02  1.2008388734577362e-01  -1.3023017248659306e-02  1.4546856080887993e-01  6.2430307243627359e-02  9.1112538608812257e-02  1.4298823589087148e-01  9.1494426608075996e-01  9.3457950637386336e-02  7.1943697524577688e-01  7.5337373708806155e-01  1.4971897752367283e-01  1.6313275276451773e-02  3.9032617320982073e-02  5.2511544775299186e-02  3.4493324067221276e-02  8.8246334012593075e-02  1.7021584566372353e-01  5.7615317012695511e-02  4.9658585029844618e-02  8.8298573979822392e-01  6.6850043361038405e-02  6.6690662331933909e-02  1.0029240831048723e-01  7.7539298545307112e-02  5.7088692248060895e-02  6.5402028005253868e-02  9.0623842923397549e-02  2.1513909762176878e-02  -1.0846320808882315e-02  1.6195033508075201e-02  1.5574834506327018e-01  4.3361818904520649e-02  5.2509851251947397e-02  9.1337188050189463e-02  5.8541306742236281e-02  9.2228140386666280e-01  8.6252586235405904e-01  9.9020925563044176e-02  8.8727414537065052e-01  -1.1564177432892909e-02  2.2763133687097037e-02  7.1829824106529039e-01  5.0719189896153448e-02  7.2568180732968571e-02  2.3386036115814888e-02  7.4777061858971691e-02  9.9206361061307036e-01  8.3764040355653616e-02  3.3451914050956523e-02  9.4615290673503133e-02  8.6384385424104004e-01  6.1080292851687111e-02  5.5505710362692043e-02  5.4276708133174770e-02  7.0611262809446587e-02  9.0186508982208047e-01  6.6643264419112627e-02  3.9240038624257685e-02  7.1238148388523256e-02  3.8739871929736963e-02  7.0722974787894233e-01  2.8371626828340955e-02  3.1649527230694093e-02  9.3662254068642159e-01  9.1270185337313747e-01  3.4172717715859072e-02  2.9027101560275565e-02  8.6485048724937771e-02  4.2828540976015787e-02  4.0441227284092593e-02  3.6162315626939612e-02  7.8084042827751637e-02  4.8200024107533330e-02  1.1919417966680462e-01  9.1988969081653582e-01  7.4641459675346389e-01  8.7559252274146210e-02  2.9419082179806887e-02  1.3558000214319252e-01  9.6014572024134859e-01  2.9260784417897090e-02  6.0243882936582678e-02  8.7374817658466064e-01  9.8256693159120978e-01  9.7170530029385327e-01  8.4099435283825449e-02  6.7289446669404451e-02  5.3146372899801203e-02  7.0535028531936006e-01  8.7093845971378481e-01  8.7888364174978514e-02  6.9876662340588924e-01  8.8228904460217372e-01  3.9323309403514375e-02  8.0276785606704815e-02  8.1020332036056475e-01  1.5809054041782997e-01  6.0370100415948723e-02  3.1389970852860639e-02  7.2760428239951838e-02  4.6102358788000994e-02  6.3060710678792140e-02  5.7655120414159815e-02  8.4673352707714214e-02  9.1674156692582520e-01  4.7224102227944868e-02  1.4605514226915578e-01  8.1789101492614077e-02  2.3655559630543325e-02  8.6408957894255067e-01  7.0163087935473711e-01  6.4257507308603204e-02  7.4632987754488428e-02  3.1796255284094833e-02  9.1766507217637600e-02  8.9140702599236510e-02  8.3704133628743482e-01  3.8011757531491733e-02  8.5465616109156550e-01  7.1633293647800966e-02  3.7425142841838427e-02  5.0901399374454162e-02  8.2652553338875528e-02  8.5730327032542575e-01  7.9316142191684202e-02  8.6980296514609035e-02  9.7790812832263418e-01  9.0455072638073564e-02  7.7655807148509656e-02  7.8489419632163743e-02  3.8574122727840630e-02  2.3948762973010095e-02  1.3987644669337684e-01  8.2662694691244848e-02  8.6994873006639967e-02  1.9032956557458822e-01  8.7957526534126629e-01  8.5378510001785618e-02  7.1660890966164820e-02  7.7202292941109460e-02  7.1999085824230299e-02  3.4131709210352947e-02  8.8344930184774628e-02  8.0971219712467912e-01  6.7367259755759534e-01  4.1305244037592691e-02  1.9619605230095111e-02  8.6751667451208059e-01  8.5745982464410986e-01  8.7323521142430893e-01  3.8047819027252051e-02  7.8895831597004903e-02  8.4881738765222495e-02  6.9177978536108797e-02  9.5484641411447024e-01  5.7211883471894980e-02  4.4078270324580900e-02  1.2389649142267897e-01  2.0013895195555351e-01  6.9141857151726160e-02  3.0718257170997416e-02  1.8971704027178904e-01  6.2299791206579407e-02  7.6379896366047695e-02  7.2464292389237600e-02  1.8014212074041308e-01  4.0041751267012718e-02  4.3023234175898019e-02  3.3607232206077892e-02  9.6149642757180387e-01  8.2424554174007347e-01  6.2699609378076282e-02  6.6075245360704180e-02  7.3249100149484131e-02  6.2315292860454473e-02  4.8303666545794842e-02  6.8542371733371399e-01  7.6559811995940669e-02  7.7220078625221511e-02  7.8562827295665119e-02  8.8506988094827335e-02  8.9467946762399508e-01  7.1044580879342387e-02  9.0354767457130933e-02  7.2228070916398901e-01  3.2861261310555931e-02  2.3798633182998026e-02  2.2560452944429505e-02  8.0364496512746963e-02  6.7995296021361729e-02  7.2190124304866557e-02  8.1675141824476971e-01  9.3993274525029846e-01  3.0034933136124899e-02  2.9494431667477998e-02  3.3144493367808621e-02  3.7737127334797116e-02  7.3419728845942042e-02  4.8890672307232957e-02  6.4099572025590176e-02  4.8120503894695459e-02  8.9460420027687260e-01  7.0496236956346242e-02  4.4259192321490837e-02  9.1473796509161556e-02  3.0714884876789379e-02  8.2536321905273199e-02  6.4742867462160114e-01  6.6813044414536477e-02  2.9118951070145723e-02  6.7012842490996616e-01  6.1406062044650142e-02  8.0698820546990999e-02  7.5365188295814312e-01  6.0251591764081076e-02  5.6849182676790601e-02  6.8417997093814700e-02  8.1678546613345893e-02  9.1684634782966146e-01  8.8427650256948556e-02  1.0006643731326172e+00  1.5211613759279111e-01  4.2829889278579517e-02  7.8069631457011540e-02  1.7441782629548014e-01  3.3854411483465650e-02  8.7254218197704347e-01  7.2201940960113994e-02  8.2155903792319251e-01  4.7730977078486517e-02  3.0989878557681386e-02  7.2368911079652154e-02  3.6632152270609661e-02  8.4607621342596584e-02  5.5855312484802036e-02  7.0295262798389394e-02  6.9671541594551176e-02  6.5947565828176111e-02  4.3671248486407216e-02  5.4945935172106990e-02  4.5908188224991701e-02  6.5167921377332350e-01  6.5351790989220393e-02  8.5354848302705497e-02  7.5267331917826349e-02  8.9824171880487663e-02  8.2428367652589304e-02  7.9195443770879725e-02  5.1397768994002717e-02  8.8532321298695427e-02  6.8780655215502209e-02  6.4048822594195143e-02  1.7526913159095778e-01  7.7430499740852610e-01  5.4860527162904550e-02  4.3410119559788310e-02  8.2472854924559502e-01  1.0034627283022786e+00  9.8948367804492809e-01  1.3263395250942003e-01  6.7456632217799281e-02  9.9110303619084600e-02  8.6668742937878096e-01  9.1539113141818701e-02  1.7488596363387032e-01  5.9130271085529734e-02  7.8498184879974037e-02  8.2542217253608746e-02  8.0503058292502164e-02  5.7192706995146024e-02  9.2650459392110557e-02  9.1494046645450577e-02  7.2397300053845548e-01  7.7188643134081511e-02  5.8893782787407242e-02  2.0153426889406428e-01  5.3517821124572505e-02  7.2661138941795170e-02  9.0265891178138880e-02  4.6082497970844037e-02  2.6490212441404006e-02  3.2052198708456471e-02  7.1831869617878935e-02  5.2455407118401159e-02  4.2260340609802896e-02  1.4589057297903253e-02  6.5639851412750569e-02  4.6999054164888830e-02  9.2022205543591729e-01  6.4900646985583094e-02  9.3327219509252368e-01  9.4204411482746919e-01  8.8449123541625008e-01  8.9937364854557433e-01  8.9574877273343367e-01  1.9868573549152410e-01  8.3401591258944752e-02  2.2892508524426126e-02  4.5552472090375176e-02  6.2258055783826059e-02  5.9706023120138133e-02  6.5904217140500182e-02  2.8700905778747683e-02  4.6069433985335084e-02  8.0093115529946735e-01  2.4343848589627146e-01  9.6007730277465744e-02  3.3471854417259993e-02  8.6570595729351763e-01  7.6346044189526618e-02  7.4630762174701201e-02  7.5507014992813037e-02  7.6471789347025365e-02  5.1707570841442237e-02  5.4936732826709973e-02  5.5366330560596387e-02  9.4479978459642466e-01  7.5146685617775363e-02  2.1059752180933458e-01  5.4274192370145781e-02  5.4275444899158184e-02  8.0916632750638678e-02  9.2172317649305269e-01  9.3397460660964260e-01  6.8669995066217002e-02  2.3861844089721365e-01  </DataArray> 
</PointData> 
</Piece>
</UnstructuredGrid>
</VTKFile>