<?xml version="1.0"?>
<VTKFile type="UnstructuredGrid"  version="0.1"  >
<UnstructuredGrid>
<Piece  NumberOfPoints="1173" NumberOfCells="2198">
<Points>
<DataArray  type="Float64"  NumberOfComponents="3"  format="ascii">-1.011717461416114 0.163154037906849 0  -1.00759797656375 0.05342099525655183 0  -0.9909798931198196 -0.05515564417467422 0  -0.9622130309204013 -0.1612005961513685 0  -0.9215115677167602 -0.2634855964838336 0  -0.8694126612161197 -0.3605989973156282 0  -0.8067261983454164 -0.4509935230314887 0  -0.73476018567065 -0.5335546533791395 0  -0.655627241283225 -0.6065555802280922 0  -0.5706726825927546 -0.6695312571457108 0  -0.4807483194244769 -0.7225792487910581 0  -0.3863662738996739 -0.7661968120978317 0  -0.2883056751155348 -0.7998502551794111 0  -0.1878185832490208 -0.8235622912737699 0  -0.08597605395882071 -0.8369979769237677 0  0.01635139202963652 -0.8403102863288463 0  0.1188724813723003 -0.8333662724151641 0  0.220264096632993 -0.8163751803686986 0  0.3198692426754972 -0.7891944314558536 0  0.4164447748029144 -0.7520115659887315 0  0.5095078771852195 -0.7049460531172674 0  0.5974960015430248 -0.6486213548740879 0  0.6803072180701837 -0.582660468221232 0  0.7570087161103818 -0.5066790860495658 0  0.826118722316418 -0.4213357298060465 0  0.8853309484005871 -0.3284793456301756 0  0.9337316867907182 -0.2297539251339008 0  0.9704519235456316 -0.1265629300282301 0  0.9956237056586453 -0.01943746933456946 0  1.008342002200274 0.08997462741389362 0  1.008486526609304 0.1997412735152086 0  0.9962555402833211 0.3082821930276365 0  0.9718157728693722 0.4150501966088397 0  0.9353644598487845 0.5185903342132594 0  0.8878174266908108 0.6169664617072182 0  0.8292994837789989 0.7094273269808318 0  0.7610246163145606 0.7950236538714822 0  0.6835438525154027 0.8728276726733153 0  0.5984628605347173 0.941450802878261 0  0.5064871500970147 1.000505700539649 0  0.4081042025280078 1.049446366160811 0  0.3055217310967146 1.087438320166692 0  0.1994658990702828 1.114546841731469 0  0.09080652772657034 1.130206904040484 0  -0.01908145256474227 1.134160155660691 0  -0.1283206257061098 1.12619763107877 0  -0.2363115080388316 1.106716210012722 0  -0.3415030738430213 1.075876099589375 0  -0.4425777363175265 1.034121344310384 0  -0.5388070751742806 0.9816964776317864 0  -0.6291064688138523 0.9190752910191524 0  -0.711560875998171 0.847461635563788 0  -0.7859737869734605 0.7671592007335122 0  -0.8510894228619087 0.6792105602531601 0  -0.906061941700147 0.5845196947421043 0  -0.9501250905670874 0.4843505700682825 0  -0.9827260100324433 0.3797961719170243 0  -1.003380450796401 0.2722588153025357 0  -2.350772639085032 0.1012292054947368 0  -2.350776522409583 -0.1012311616075832 0  -2.333372290483475 -0.3029390593767277 0  -2.298689416651786 -0.5024042669546651 0  -2.246994329887592 -0.698150297407251 0  -2.178655833356446 -0.8887280562156499 0  -2.094194497888865 -1.07272933333199 0  -1.99422632962803 -1.248783462382036 0  -1.879491798294037 -1.415594857792172 0  -1.750845217697496 -1.571924775758025 0  -1.609231853284518 -1.716616590543632 0  -1.455707297316319 -1.848599446587194 0  -1.29140378967251 -1.966896673676598 0  -1.117540300394168 -2.070629838910173 0  -0.9354022476962084 -2.159033805756716 0  -0.7463363512486816 -2.23145399150518 0  -0.5517475426061674 -2.287352429243453 0  -0.3530738341190792 -2.326312591308507 0  -0.1517869824190624 -2.34805588816337 0  0.05062600624741985 -2.352408666306334 0  0.2526636664368805 -2.339348803829594 0  0.4528301428959769 -2.308972244759149 0  0.6496430151378753 -2.261494161925163 0  0.8416487889215305 -2.197278490589901 0  1.027421142441492 -2.116792402843204 0  1.205588137391372 -2.02063394278285 0  1.374827626685182 -1.909516099622371 0  1.533890388674299 -1.784259620695028 0  1.681594096997847 -1.645795438113221 0  1.816847954272313 -1.495141169020652 0  1.938652513232252 -1.333421401137817 0  2.046102409175162 -1.161829764095329 0  2.138407914863168 -0.9816378942762521 0  2.21487705454322 -0.7941771547494881 0  2.274946323519635 -0.600833810205225 0  2.31817889578824 -0.403044839388243 0  2.344244663410472 -0.202273565247577 0  2.35295508590043 1.073918944069825e-07 0  2.344241778630267 0.2022704591835738 0  2.318178559113414 0.4030448603253852 0  2.274949756225868 0.6008339024115501 0  2.214878186926472 0.7941755179829317 0  2.138408374606283 0.981635838844266 0  2.046106670380218 1.161831196718543 0  1.938652113219469 1.333422318798816 0  1.816851097368578 1.495143421203725 0  1.681596170369946 1.645795768294761 0  1.533889522566306 1.784260840319851 0  1.374829894604773 1.909515108538834 0  1.205586413365035 2.020631098639913 0  1.027419943539123 2.116793880246501 0  0.8416500172657091 2.197278342263042 0  0.649643546061631 2.261494535937722 0  0.4528317997235698 2.308972355152732 0  0.2526640300021226 2.339352026973065 0  0.0506251538182644 2.352413728714412 0  -0.1517876133281784 2.348055853938034 0  -0.3530734442731927 2.32631311011542 0  -0.5517471489605585 2.287352814096844 0  -0.7463365431028406 2.231450767408782 0  -0.9353999910540356 2.159031832118908 0  -1.117538436885254 2.070628014276257 0  -1.291403452490166 1.966897097961179 0  -1.455706888801195 1.848600165172052 0  -1.609230501766195 1.716614179910323 0  -1.750841294985205 1.571922439534796 0  -1.879490077243814 1.415593000171652 0  -1.994225863111207 1.248784880578755 0  -2.09419565013205 1.072728707877674 0  -2.178657375786606 0.8887277432572263 0  -2.246990760093166 0.6981502415737514 0  -2.298690071216915 0.5024032410567939 0  -2.333368985932184 0.302938253416398 0  -0.0004193952840702102 0.1545571111031786 0  0.1031706749273889 -1.598151748576864 0  -0.7027223791805466 -1.44952210630072 0  0.8135672964914097 -1.388985830308604 0  -1.3476207480459 -0.9290487789454339 0  1.3880011646976 -0.8713733661885503 0  -1.642267852444336 -0.289783370420696 0  1.654950955011258 -0.2191496888102208 0  -1.644669993308972 0.4286607032432863 0  1.626289059959849 0.499498406214735 0  1.287044107033871 1.148657612951782 0  -1.334416489716541 1.091621789735584 0  -0.7845300733459711 1.549566368230669 0  0.7306029735398009 1.575802046186783 0  0.1132162173152416 1.742768183792046 0  -0.5050472054968567 0.0818754115718013 0  0.5083471542643401 0.1514190081664088 0  -0.3023998335142423 0.5474691394029154 0  0.2459685919070636 -0.2764364476726459 0  0.2511963909969351 0.5789205984416597 0  -0.3547277255026407 -1.818749193110161 0  -1.206167585984198 -1.410890359106793 0  -0.3745463279902487 1.827784557342035 0  1.298742867032701 -1.347230645415142 0  0.602764326586311 -1.801195914810204 0  -0.2429072685144815 -0.307516493240213 0  -0.8866938166336734 -1.022646874099516 0  -1.759239786336417 -0.8084509446480503 0  1.784934525759837 -0.6505540242859438 0  -0.2015376874880507 -1.273419634928985 0  0.939756201846679 -0.9565244784190203 0  0.3963271390963348 -1.230133758463442 0  -1.947352838308969 -0.003093794349357271 0  1.901889345157476 0.1529677812766486 0  -1.78147375173348 0.8134215330079287 0  1.669860979666155 0.9376020850740829 0  1.295346307075282 -0.4572300806876601 0  -1.270447342495455 -0.4962724970004255 0  -1.208450647061836 1.501511715576145 0  1.152221439980208 1.551194988121974 0  -0.0005463505833047192 -1.971153096845887 0  -0.4168795074777241 1.448020434096517 0  0.4640562325981384 1.918219641945144 0  -0.7377746444458123 -1.832074220500414 0  1.083114382634325 -1.66077360505871 0  1.426074682169726 0.1283717438033828 0  -0.5316810653701353 -1.12030908647519 0  -1.407713161163516 0.09970714535617925 0  1.287903786914802 0.7335421480793861 0  -1.415543220844384 0.7240127152703406 0  -1.544204964033621 -1.249940197023407 0  1.614974060589427 -1.162010467786491 0  -0.9598037765779528 1.199056511244805 0  0.8937682789765624 1.210317669373773 0  -1.938463055607613 -0.4970421243836292 0  1.974096812926706 -0.3601233602810708 0  0.3685484519501975 1.460429017022103 0  -0.7254800978335801 1.889340349967697 0  -1.672793320865192 1.137976135500651 0  -0.09045526725982116 2.015347192674408 0  -1.985230242909125 0.3450945553845886 0  -1.018420123483086 -0.7184154317813451 0  -0.03834753270135627 0.7840499872525527 0  1.897666016234597 0.6967443575549102 0  0.5743216243681298 -0.1878068462903565 0  -0.6175237172179406 0.403939396264194 0  0.5786158997623988 0.4885453503307653 0  -1.121548953502842 0.8496282878141943 0  1.525368529006083 1.36538732549315 0  0.7785606435941363 1.888819015269416 0  -0.9702257932570323 -1.619316538623122 0  0.3326515186623435 -1.998178769144171 0  -1.308835441886423 0.4112085230033888 0  0.04608457301280288 1.437660202804355 0  1.294931797295171 0.4152854491667988 0  -1.022820071684154 1.764674506709017 0  1.047228404278081 0.9349072120484692 0  1.043187543494796 -0.6575032932042372 0  -1.275552251118949 -0.1860313313052927 0  0.6770011772581243 -1.1124775750153 0  -0.588888370721474 -0.2241457356615886 0  0.01439685311497466 -0.5056390938645769 0  0.08967076916733581 -1.154046715590973 0  0.4136009170056542 -1.546368959852182 0  1.281842614556827 -0.1494145376504576 0  -0.6601400747427061 1.261094119981938 0  -1.47187159739197 1.359842538587247 0  0.6047856478669755 1.279259834108832 0  1.830471089395809 -0.9494939519134917 0  -1.564188694356689 -0.5782285459518656 0  -0.1558375648263238 1.641942808129106 0  -0.1905680282147715 -1.57064232387171 0  0.1954450570511023 2.016500372892043 0  -0.01906926432770788 0.4498852087606059 0  -1.665025935876215 -0.01231340013106644 0  1.887820545023756 0.4242709601886648 0  -1.237320311295952 -1.684146566156674 0  0.8370390665683205 -1.930685031934063 0  -0.4486967533037007 -1.369923135462001 0  1.198340735826703 -1.080744290691709 0  -0.008390729619455643 -0.135593284180843 0  -0.2388393879857529 0.01402528345284755 0  -0.2399771569759428 0.2848293877002868 0  2.079082462726309 -0.09138949331736318 0  1.571723142073973 -0.4777132626737683 0  -0.7590531453276375 0.1200311687918862 0  0.7375519822639238 0.2751743018319552 0  0.2217263145973093 0.8393036
[...]
<PointData  Scalars="f_3101-1"> 
<DataArray  type="Float64"  Name="f_3101-1"  format="ascii">3.4533649652595344e-01  3.3407824394132940e-01  3.3242410555637764e-01  3.2877922532588177e-01  3.2867156629540295e-01  3.3786112947638269e-01  3.3214538403372884e-01  3.4265289339444394e-01  4.0861537100829842e-01  4.2953368254693097e-01  4.3738154823647812e-01  4.1828616502554733e-01  4.2120992910727911e-01  4.3200551998108255e-01  4.2447611375378907e-01  4.2851796476387793e-01  4.0831930536224637e-01  4.2473712847343792e-01  4.4634980395234569e-01  4.3591999758659555e-01  4.3139192388971531e-01  4.2798747794069220e-01  4.0285188869725869e-01  3.3018660191492771e-01  3.4326373430196555e-01  3.1420629535424754e-01  3.3633333540965510e-01  3.2685759087730176e-01  3.4523861138188389e-01  3.3282503106126599e-01  3.3168627288238589e-01  3.3599064352683905e-01  3.5687679650078935e-01  3.3319701058661255e-01  3.5382727219342652e-01  3.4763666349893352e-01  3.5479694244553722e-01  3.5909869423703988e-01  3.6171806643674875e-01  3.6561999596994743e-01  3.6104506396592512e-01  3.6336978828888755e-01  3.7969126130412956e-01  3.5266191101764260e-01  3.8059080323138456e-01  3.6578477587449226e-01  3.6915658662703399e-01  3.6832406674796281e-01  3.7105328599941090e-01  3.6275205735778598e-01  3.5998787044114006e-01  3.5432010509397721e-01  3.6392119452785066e-01  3.3718845487940302e-01  3.5486134233170619e-01  3.5487894487653893e-01  3.4287701367251427e-01  3.4179284021167206e-01  -1.0619243944699933e-01  -4.9796036855773357e-02  -4.3388988907899752e-02  -9.6741326843039183e-02  -4.2429581626766480e-02  -1.0800571611967050e-01  -4.5941513156454214e-02  -4.1256258667657357e-02  -4.3622095623921039e-02  -1.4565639369377504e-02  -3.1627406541737776e-02  -1.9325056230113376e-02  -6.7045719425471483e-03  -1.9390921477175273e-02  -1.5507848247460963e-02  -1.3188243684710764e-02  -3.9295265651172412e-03  -6.1030789750461285e-02  -8.8933866191989053e-03  -6.5985437538669325e-02  -5.9893796087351112e-02  2.3290312138823377e-03  -5.9764049770909849e-02  -1.3757075883608633e-02  -1.8713655522706776e-02  -1.5084819443467982e-02  -2.0011116873926697e-02  -3.0864455588944725e-02  -3.3019916135340402e-02  -9.0139940792303586e-02  -8.2739300755943407e-02  -9.2670888938022583e-02  -2.4931362313417898e-02  -4.6459462939428611e-02  -9.8926676322474774e-02  -3.9700134897523678e-02  -4.7489776185864703e-02  -3.8524208915517083e-02  -9.5332571669415805e-02  -4.7155813590224693e-02  -4.5662244001690139e-02  -3.3243216046374098e-02  -4.3876196600226826e-02  -2.2511299319410615e-02  -7.7258698207129939e-02  -2.2130582078312658e-02  -5.4527561706271222e-03  -2.3680697930510110e-02  -1.6647526962720822e-02  -6.8294222650061423e-02  -1.0627020880680405e-02  -8.1833934503778918e-03  -5.0707555262137174e-02  5.7585255153639082e-03  -1.7628238996810646e-03  1.8091906282773768e-02  -6.1665945613894489e-03  -5.0935290239467731e-02  4.2098933649484108e-04  -5.9956331906423195e-02  -5.8918879707380176e-02  -5.7271335914257857e-02  -3.8144292038859531e-03  -9.9040316577228248e-03  -7.4986609313666880e-02  -7.9992545220820804e-02  -7.9394019557080975e-02  -2.9826663044133419e-02  -3.0182927091464872e-02  -8.5907524736595881e-02  -9.8346331378203061e-02  -8.6781911215967678e-02  -9.4651868196114389e-02  7.9746435402900007e-01  6.0205926175700447e-02  5.4468286512855645e-02  5.2765353621680201e-02  3.3003101915267306e-02  3.2403775170479661e-02  2.4121829620224553e-02  2.4501922136863301e-02  3.2301699573555956e-02  3.2867477494806022e-02  4.8787807172040891e-02  4.8131916999206402e-02  6.2278087054821359e-02  6.2376028419976401e-02  6.8228960466378261e-02  7.8453920564036150e-01  7.8231232250276672e-01  7.7228935090844675e-01  8.3254442989014643e-01  7.7220696617480433e-01  5.8446366473356562e-02  4.3877450357793710e-02  6.6851347608373607e-02  4.2158172630887739e-02  5.6228064883662977e-02  8.3464075312401265e-01  4.3251817496823504e-02  2.5789172342320140e-02  2.5265000627440061e-02  5.5925327946963990e-02  4.1344098312779486e-02  5.5471268544117144e-02  2.4148284200565532e-02  2.5917713737490283e-02  3.6294776526448420e-02  3.9214023201274532e-02  1.9777292235148864e-02  1.8385207562534235e-02  5.4525668886826112e-02  5.4827070246854570e-02  5.7959394013224141e-02  6.5770206331052961e-02  6.4581079354067372e-02  5.3281206485962851e-02  4.8018379456279597e-02  2.3644653534964255e-02  5.5896982305591682e-02  2.3386301428560893e-02  3.9428991611038487e-02  3.9527681078364706e-02  3.3754984698839530e-02  3.2323436809177583e-02  5.4948442074318211e-02  5.4287124733215432e-02  2.1545470028380542e-02  2.0783782668666956e-02  6.4521840667958491e-02  6.1740651922013536e-02  4.1496863211664715e-02  6.5650741916668864e-02  2.6572754768276217e-02  2.7120561231329509e-02  7.6652093404272337e-01  3.1500544097834864e-02  7.9507435042184260e-01  7.6831803509228525e-01  7.6762711140789797e-01  5.0343690326907241e-02  4.4222740523436943e-02  6.0155994240958278e-02  5.0024439933785740e-02  5.6055736279557580e-02  2.6274922790225284e-02  6.6200417361117606e-02  3.1091085508824223e-02  5.7354169267310802e-02  4.8213369159812759e-02  2.6373195255592088e-02  1.1479636625931383e-02  5.1340321544806347e-02  7.8831010540892843e-01  8.5083903886097834e-01  5.3209159311097286e-02  5.8738070215921263e-02  1.8831559366450971e-02  6.7560202746195064e-02  4.7580556718847970e-02  6.6637478932109945e-02  2.4775547278879078e-02  2.5519183496967798e-02  6.8629973955897108e-02  5.9894536584875722e-02  6.5272635251126726e-02  7.7964596590657242e-01  2.5629208940736694e-02  2.9006561691071676e-02  4.1265910478716368e-02  4.9549235290290955e-02  5.6802898949629949e-02  4.0107680046511378e-02  8.1975178261584736e-01  8.0407413677753092e-01  7.8570397995938945e-01  2.0426661212737798e-02  2.4958619022112532e-02  7.4510795934137830e-01  7.5321709668648018e-01  7.5590854904656712e-01  7.4615651086583734e-01  7.5440628345761940e-01  3.1943081692073723e-02  8.3834865638450262e-01  5.2686958123251845e-02  7.8524143438675864e-01  8.0496598318480872e-01  5.7249334725775571e-02  5.4788437931863436e-02  7.4547834618476616e-01  3.5411601844266005e-02  4.9019657051039826e-02  3.8924945254408393e-02  5.8723861914471945e-02  5.3706436082877326e-02  2.5626612534591118e-02  6.3207622999835913e-02  6.7456417196974011e-02  3.8999046874102335e-02  1.8455478634613758e-02  4.7036617787416891e-02  7.5762251668318470e-01  6.5400569228886665e-02  1.8856591958942188e-02  3.3562883475552058e-02  8.5171452952064342e-01  2.1347212622247168e-02  4.2890382420334987e-02  4.6139978601310597e-02  3.9236986897380283e-02  2.7822628519913288e-02  4.6884157250536830e-02  7.1242756662308004e-02  3.0669062560566583e-02  5.7292441393054019e-02  2.8478910350155220e-02  6.8318066282968035e-02  5.2176503209368862e-02  8.3610481592899821e-01  3.6178244917646110e-02  5.0663984389401749e-02  4.8674764754973954e-02  6.6953708510750040e-02  8.5867843947153921e-01  2.5590208410115819e-02  5.1629142762604878e-02  8.6006262231758640e-02  1.9497983677455762e-02  5.9494527423704577e-02  2.4808160181310178e-02  4.7967583079978608e-02  2.9089143990101009e-02  3.4196447042055336e-02  6.8062474337628256e-02  4.6670618435529748e-02  2.4181704670851303e-02  5.3302818562544749e-02  5.7952706144623965e-02  3.1781241372975347e-02  5.6067510464302535e-02  2.6914022094586695e-02  2.0392087034210776e-02  6.0268039516551977e-02  5.1162010230213883e-02  3.6170501155585594e-02  4.3177483144163947e-02  2.6894601660788255e-02  4.3178568042447081e-02  7.5712226506601463e-02  5.4989960274080596e-02  5.9681131563585114e-02  6.4156815535738598e-02  4.4790753347331479e-02  3.3723313433648726e-02  3.3709876525862027e-02  2.1597102553868146e-02  2.0344243906581974e-02  5.8835950060039076e-02  5.2021078612275264e-02  2.3204879888903896e-02  4.5877008150066942e-02  8.0975987866642374e-01  5.4346147484414707e-02  3.7751493718668448e-02  2.2266783639328686e-02  3.8735481618911667e-02  2.1780259733333029e-02  2.3595119848267822e-02  5.6839219861490251e-02  5.3044684499125659e-02  5.8934445333389124e-02  1.7447060195136716e-02  2.4515902032786186e-02  3.6510903622229800e-02  3.4895703608906849e-02  4.8850255707839838e-02  6.9580248764960065e-02  7.5140378141870107e-02  6.7626813962020513e-02  5.2510544511438710e-02  3.6554398387083263e-02  5.1358895444523579e-02  2.9171680075082401e-02  5.5468122836537126e-02  5.3146067029276309e-02  2.8951095980390799e-02  4.1989868401878259e-02  3.9399432946603571e-02  1.5336994827441861e-02  5.9507789985900936e-02  8.5865088467298872e-02  4.7882847311854854e-02  2.1426729305567310e-02  2.8248917867812563e-02  7.7914689534418513e-01  3.3523596433870199e-02  5.9357636236947980e-02  3.4286178787335600e-02  6.0928703116652404e-02  5.1196508699990345e-02  5.5961636710835178e-02  6.0631074162711657e-02  7.7580454223003970e-01  9.2040635504841234e-02  8.2334774866165250e-02  4.0844391174915021e-02  7.7652023650886859e-01  5.3961391806227645e-02  6.0689100789240315e-02  2.8894658073733787e-02  7.3957247637224244e-01  7.9821809680093003e-01  6.7198450526024939e-02  6.4878752807679435e-02  7.6959966593260362e-02  4.5566076103152831e-02  2.4254092043685376e-02  2.4701090562174201e-02  6.5319981165102653e-02  6.7169545701623506e-02  2.2837384194914056e-02  6.7890345761979082e-02  1.2866066854951025e-01  2.1677140907358498e-02  4.4448272723440138e-02  4.4301527191669757e-02  1.3684364095647331e-02  7.2582674113184220e-01  2.7671368133313907e-02  5.8657175435679117e-02  1.0408502565584098e-01  8.3678838081457541e-01  2.5945395960763964e-02  4.9956317152623213e-02  5.9126071543251363e-02  1.3638729795740392e-02  7.1678391680792608e-01  7.1830072883436702e-01  6.1055065901610167e-02  3.2657790286921937e-02  6.0488326249676268e-02  7.5402310207174594e-01  1.5339477607905876e-02  7.1844155057009018e-01  2.6805688248879887e-02  3.8991130393834103e-02  5.6393069497720417e-02  4.8546123597760553e-02  7.1789456556546893e-01  7.1687155079593334e-01  2.6974474974772098e-02  5.9751825382435356e-02  3.9097974665937764e-02  3.8570284443377491e-02  6.4780087959773719e-02  7.6763302283304269e-01  7.6781456664264836e-01  2.7075730644078144e-02  5.4567152902282742e-02  2.8299370550266479e-02  4.8935809617169215e-02  3.0101444550968446e-02  6.6697104923898923e-02  7.7264654761975571e-01  2.4763583905496118e-02  3.4838361465348480e-02  6.9483366851226447e-01  4.5101356569341104e-02  2.4156811734596505e-02  1.8384361704628500e-02  1.3286397819036849e-02  7.6945274194893976e-01  8.1620633255286623e-01  3.3423224718768289e-02  4.5209919502540163e-02  5.2007375764779942e-02  6.3009724848413884e-02  2.4384417703383354e-02  9.0518819157792238e-02  5.4557672634415418e-02  3.9562281841576535e-02  3.3964514545762166e-02  4.5600164845645962e-02  8.5679356366716120e-01  2.5930799240459022e-02  2.3892785558657741e-02  7.4138431137545169e-01  6.7409772258529774e-02  5.9654365630832845e-02  3.1577989941887999e-02  8.4800810645724833e-01  7.7196846572809108e-01  2.5289949634538976e-02  4.9284126958483596e-02  1.5264921101802182e-02  3.3743823391906555e-02  5.7574863289536746e-02  4.9016916330374770e-02  3.2366197628449257e-02  7.9021181013591191e-01  4.5472948675948324e-02  7.1948961429393743e-01  3.2073642355437082e-02  8.4773009771244723e-01  6.9663421322612451e-01  5.9671411956436687e-02  7.1368364225816250e-01  5.8291791577385350e-02  7.9959975165955627e-02  4.1337966581151235e-02  6.3123601930030387e-02  8.1564071836883212e-01  7.6859371092214204e-02  6.5924513093617840e-02  8.1756907848769500e-01  5.1509877004466270e-02  4.6918099221984255e-02  5.4349753187470873e-02  3.5203447641507152e-02  3.7456807768860095e-02  4.0895584461102849e-02  2.9246069439543748e-02  4.2790350606675624e-02  8.8233105604219042e-02  1.3166099260829950e-01  5.4203405644235543e-02  5.1183175232848377e-02  3.4962378603042452e-02  5.0806514208517776e-02  5.7559771674743472e-02  5.8201583376633524e-02  5.7596902970459378e-02  5.9759253886372564e-02  6.1962781348427982e-02  5.4588547861109740e-02  7.2337637141054484e-02  3.5421671128003270e-02  5.2053728620329302e-02  4.7774251258677590e-02  1.9112535424748250e-02  9.6742950228682026e-02  7.7950124636361362e-01  7.8720931415472994e-01  1.8812803817026477e-02  5.0674339885566848e-02  2.2855097422428014e-02  2.3443506810327912e-02  4.6016996845014688e-02  4.8087354751203917e-02  8.5260886488715903e-01  6.7852897045137889e-02  1.3306052933655305e-01  7.3194038311898024e-02  6.0115671978307438e-02  5.1374640015771356e-02  1.8177711754027149e-02  3.7800358257388061e-02  3.9459012837370938e-02  5.3874311432122242e-02  3.9407839095275572e-02  5.6559571454206266e-02  1.5468980844279324e-02  4.6633582695714861e-02  5.4086994707298636e-02  1.3883644389306164e-02  6.8903836169887864e-02  1.3039784486676120e-01  6.8480023366265477e-02  7.8215533676757854e-01  3.8692502993310320e-02  5.7575385971833058e-02  7.6969647511860340e-01  7.7033196950507055e-01  1.3148799603313677e-01  2.9444738775343926e-02  2.2155983898286165e-02  2.6248137218268984e-02  5.9817338266178299e-02  7.7747189579950349e-01  5.7891021096080422e-02  2.8730629762830865e-02  7.9341852648957256e-01  2.3823714192631497e-02  6.0630300740630742e-02  7.7233663334418545e-01  2.2222824724384940e-02  6.8399299898116372e-01  7.7898498700784513e-01  8.2964174344347918e-01  8.1826615307936701e-01  6.3676452486756394e-02  4.8808246492216961e-02  5.1331882055423286e-02  4.7653875894076561e-02  1.2855382559346773e-01  7.7159124090601994e-01  4.4347223368646514e-02  2.6211772151812331e-02  2.2602613049771302e-02  7.8885184687726095e-01  7.9570156697460981e-01  2.9972176356035211e-02  6.0025924421861783e-02  1.6230422331987470e-02  8.0849768038028968e-01  8.0736463921624868e-01  3.5971203516675355e-02  4.5642333203120680e-02  2.3918673732238802e-02  1.1550752716901527e-01  5.1214421925924201e-02  4.9506233536103658e-02  4.4803850576301534e-02  2.8432729132951556e-02  5.4556113677488915e-02  6.2759376187040777e-02  7.9234235816160503e-01  3.5094233113101655e-02  6.5068692391638250e-01  5.5085817532426036e-02  7.9482053034763966e-02  2.9565985732684884e-02  7.9607493716475497e-01  1.2990021444264362e-02  3.6354004881468824e-02  3.7891899904526828e-02  4.6682339597790695e-02  2.8434439223546718e-02  2.6045931314340968e-02  3.0724458893803885e-02  2.9204412832601997e-02  4.1053388013717995e-02  6.7745987475084465e-02  6.9561846868196303e-02  6.0781602838188259e-02  5.4347763344567687e-02  6.6093366253542410e-02  5.1857604057675831e-02  6.5804511814141806e-02  5.3609543826559830e-02  1.2621004162514704e-01  5.1538591743913002e-02  5.8435067811568119e-02  3.9750010717802389e-02  4.1439945194519698e-02  7.9862160561352502e-01  4.3458526056647899e-02  4.6938053649839342e-02  7.6444954684655753e-01  5.7994852379345922e-02  5.5327315067129006e-02  4.5412128519160169e-02  1.4132871746128103e-01  3.3134948146586317e-02  1.4042860519297398e-01  2.4284853595272285e-02  5.7448693574632885e-02  2.6150392750001757e-02  2.4186780318473565e-02  6.4789014259182010e-01  3.5682588227572490e-02  3.0309616955623488e-02  2.5604102455011542e-02  5.4171519275176702e-02  6.4054885882592794e-01  6.6298439486764796e-02  8.2556046713919284e-01  7.6604655734367888e-01  1.1686271697483645e-01  2.1166726267523941e-02  1.9306504616097359e-02  1.8874122750706965e-02  6.4369633709037077e-01  4.4918891610924369e-02  5.6565038546569343e-02  2.2382827307990894e-02  2.4625260722858543e-02  2.5636074462147600e-02  4.7108526445097061e-02  7.2773411385144593e-01  6.3252735976364505e-01  2.4738535651179550e-02  6.4346115858216801e-01  5.3506192270652696e-02  2.9590223951489605e-02  4.6399759299444510e-02  4.4560307686487381e-02  5.3035535142051261e-02  2.3893560959239828e-02  2.9527448795171371e-02  7.6180891751944546e-01  2.6393094722233695e-02  3.7798784102853401e-02  7.7777628894202511e-01  1.8866196123191209e-02  1.3451405881288238e-02  2.1229771545167843e-02  6.4403301732167195e-01  4.8413041177295023e-02  2.1424948966218649e-02  1.5401198779476486e-02  5.8759820069937178e-02  7.7407505795297238e-01  6.6258051679220031e-01  -1.6561951311559594e-03  3.5321401290171577e-02  1.0062049497456266e-01  5.6817793178508103e-02  4.2461040333091150e-02  6.4310879812506583e-01  8.1027948070352396e-01  5.3674124928780119e-02  4.4657068376403986e-02  7.5929251345781756e-01  8.8530392105576217e-03  7.7169733914454408e-01  5.1840756060163987e-02  8.4640562336168998e-02  3.2616737019825343e-02  8.1271606980667199e-01  8.3532870201832798e-01  1.4495611207524128e-01  6.3804829080433903e-02  6.5742725721597520e-02  7.7024982945863962e-01  7.8433587225113355e-01  3.2743401017514266e-02  4.2473370397487761e-02  2.9865335994362724e-02  2.4224180822892578e-02  2.5179405828793945e-02  1.7634329386533254e-02  7.6063930601526930e-01  4.9598126698885490e-02  3.0379273674992859e-02  5.4317144249102153e-02  7.6664837090577420e-01  1.6301340875323898e-02  2.6223908526678643e-03  4.0884062310872833e-02  2.6915360364614539e-02  6.4629691274255038e-02  2.9513650585900261e-02  3.4983119498396713e-02  3.3619021043092348e-02  2.3384729305847504e-02  5.3517057642311960e-02  7.5955023568529689e-01  5.5467704339652306e-02  5.8104558758030805e-02  5.5810213175879399e-02  5.6233245507530470e-02  2.7026143141622692e-02  2.8186317040342957e-02  3.3792631682633044e-02  6.1636738201995174e-02  5.3391318671642873e-02  2.9630827731667406e-02  4.7967748084143842e-02  5.8721769693917167e-02  4.2883237686995652e-02  3.6968576532524527e-02  4.1600398646182250e-02  1.4513126342784810e-01  2.8117034979664838e-02  6.0814587807172728e-02  5.7570165978245769e-02  5.5131908993283497e-02  5.9491518898482851e-02  3.2235852970814771e-02  1.5375742974402118e-01  4.0783817051735290e-02  1.8047569134330869e-02  5.7683374311736722e-02  8.6285440060366952e-02  3.9852857444593874e-02  9.6185759789506609e-02  4.1689436704597266e-02  5.0107151616597366e-02  4.3734757152799050e-02  5.6596303655058980e-02  1.5740491709097176e-01  1.4293070133304714e-01  8.2823025401800410e-01  4.7796274556469308e-02  2.4731407327607143e-02  5.7273289169484369e-02  2.1167696433164400e-02  5.8509260505857495e-02  4.8347839863543594e-02  5.1611380444739910e-02  7.6155021614732687e-01  2.7913946211557343e-02  8.6850544871929114e-02  5.4913855534134977e-02  4.6089030059402653e-02  4.1144648465985700e-02  6.4212279716204329e-02  6.6486175985506962e-02  6.4141646648336562e-02  7.7419413771752643e-01  3.6498359745247580e-02  9.3390081987243065e-02  9.5954055179869283e-02  2.7103832735269121e-02  1.3670519507721883e-02  1.3395010322485893e-02  6.3481541777030498e-02  3.2845040369771608e-02  5.0255855770318041e-02  3.6359708418405565e-02  3.6428050095998525e-02  5.7631779069398002e-02  1.3989561419118038e-01  5.4972949138516733e-02  6.7984949228801300e-02  5.9354242610290146e-02  5.6299543771489560e-02  2.6574940867834709e-02  7.7998774963573811e-02  6.5442804847924987e-02  6.0190110012372386e-02  5.9264674535886283e-02  6.7141981189957026e-02  7.1194041837917843e-01  8.5173344107828686e-01  9.3650551277053143e-02  1.9655432262098357e-02  5.5900312332243268e-02  4.3344484866485199e-02  7.6186677275258041e-01  1.5954137103748586e-01  4.5513562980195287e-02  4.2799920877597007e-02  4.2055049288821221e-02  5.5410801595887106e-02  6.7633906689942347e-02  6.6189373691868184e-02  6.6627018582063130e-02  2.3635743628731123e-02  1.7577223295240443e-02  2.9953161857644789e-03  1.5957171081559522e-02  2.1752208358467910e-02  6.0962897817959452e-02  4.5727641261011469e-02  2.2722015369460634e-02  1.0022504836419711e-01  5.5833222124074239e-02  2.0486127483810398e-02  2.4977653783549266e-02  2.7767681072332403e-02  7.2814120405739602e-01  4.9736145151711673e-02  1.3692105215093542e-01  3.8782422037070947e-02  8.5115108283445495e-01  8.6531275370801863e-01  2.8433529703063693e-02  2.0577960743651463e-02  4.7852903217733167e-02  2.4590505242096296e-02  2.8152860340355124e-02  1.7718921508803276e-02  4.7947193766964741e-02  5.2792503323550601e-02  8.0369225931586297e-01  1.27009106730