<?xml version="1.0"?>
<VTKFile type="UnstructuredGrid"  version="0.1"  >
<UnstructuredGrid>
<Piece  NumberOfPoints="1127" NumberOfCells="2108">
<Points>
<DataArray  type="Float64"  NumberOfComponents="3"  format="ascii">-1.005055340489539 0.1371290923355769 0  -1.002026191136552 0.02930233914470605 0  -0.9868873089642646 -0.07749886063369701 0  -0.9597530645065397 -0.1819470779661553 0  -0.9210296654006754 -0.2827297096974408 0  -0.8713360521348509 -0.3786618742104539 0  -0.8112500832718026 -0.4683716701923321 0  -0.7418462495746063 -0.5506165101266232 0  -0.6640775474594036 -0.624342969525285 0  -0.5791109304624439 -0.6886594614582916 0  -0.4882227634763529 -0.7433843361662047 0  -0.3922840146197757 -0.7883497161184289 0  -0.2923778509463128 -0.8233008566971005 0  -0.1894338554979327 -0.847944856650567 0  -0.08465759171562978 -0.8619220336940583 0  0.02104051571533965 -0.8658357599125757 0  0.1265358110555588 -0.857662941267907 0  0.2306281108420456 -0.8390142358124731 0  0.3323945103514178 -0.8098865700266806 0  0.430701680122569 -0.7705193844818705 0  0.5245535830233082 -0.7212946786206926 0  0.6129924335341363 -0.6626502012893828 0  0.69501859935983 -0.5945234221408306 0  0.7695442134552519 -0.5172587946877488 0  0.8353812701007145 -0.4319530319900732 0  0.8914192982375452 -0.3397237458466941 0  0.9367692303147995 -0.2417274158832794 0  0.970880614226186 -0.1393792339064197 0  0.9931616992198509 -0.03383368290963458 0  1.003540794629876 0.07354652531715639 0  1.001616594738141 0.1812719607084762 0  0.9875799756570572 0.2881152048173169 0  0.9616497700754901 0.3926900440874323 0  0.9241799990463021 0.4937344124704986 0  0.8757996825940496 0.5899627090068349 0  0.8169852827795682 0.6802610927537779 0  0.7486001375784698 0.7635995048997393 0  0.6716232138695735 0.8389924326775492 0  0.5868741658386839 0.9056115015572821 0  0.4955025004643772 0.9628908715547843 0  0.3985719880159457 1.010259464674473 0  0.2971228460825084 1.047077701185338 0  0.1924383624001881 1.073042849773917 0  0.08550426639669574 1.087912416687381 0  -0.02245904286398718 1.090970023073564 0  -0.1300841817915363 1.082605438364854 0  -0.2362064075145958 1.063179689741562 0  -0.3396241092997958 1.032679858079546 0  -0.4393091797125035 0.9915324409705697 0  -0.5340735975543 0.9401515429996191 0  -0.6228060487607022 0.8789801841714208 0  -0.7045116103977781 0.8086513231910178 0  -0.7780719523887051 0.7299234152502497 0  -0.8427071000121344 0.6437404851177742 0  -0.8973959059422397 0.5509024975710493 0  -0.9417261216462179 0.4527092559628058 0  -0.9747704275276304 0.3501645347748403 0  -0.9958524175067786 0.2444569995213248 0  2.272536637491479 0 0  2.263888949488254 0.1980646185618354 0  2.238011699605902 0.3946218457817288 0  2.195101829341138 0.5881757624760379 0  2.135485908716364 0.7772533064676689 0  2.059617650884612 0.9604154834787028 0  1.968074459098489 1.136268318745739 0  1.861553032322776 1.303473466009551 0  1.740864062934635 1.460758393138233 0  1.6069260668651 1.6069260668651 0  1.460758393138233 1.740864062934635 0  1.303473466009552 1.861553032322776 0  1.13626831874574 1.968074459098488 0  0.9604154834787028 2.059617650884612 0  0.7772533064676691 2.135485908716364 0  0.5881757624760384 2.195101829341137 0  0.3946218457817289 2.238011699605902 0  0.1980646185618354 2.263888949488254 0  1.391527359524514e-16 2.272536637491479 0  -0.1980646185618351 2.263888949488254 0  -0.3946218457817287 2.238011699605902 0  -0.5881757624760381 2.195101829341138 0  -0.7772533064676683 2.135485908716364 0  -0.9604154834787025 2.059617650884612 0  -1.136268318745739 1.968074459098489 0  -1.303473466009552 1.861553032322776 0  -1.460758393138233 1.740864062934635 0  -1.6069260668651 1.6069260668651 0  -1.740864062934634 1.460758393138234 0  -1.861553032322777 1.303473466009551 0  -1.968074459098488 1.13626831874574 0  -2.059617650884612 0.960415483478703 0  -2.135485908716364 0.7772533064676692 0  -2.195101829341138 0.5881757624760375 0  -2.238011699605902 0.3946218457817287 0  -2.263888949488254 0.1980646185618355 0  -2.272536637491479 2.783054719049029e-16 0  -2.263888949488254 -0.1980646185618349 0  -2.238011699605902 -0.394621845781728 0  -2.195101829341138 -0.588175762476037 0  -2.135485908716364 -0.7772533064676687 0  -2.059617650884613 -0.9604154834787015 0  -1.968074459098488 -1.13626831874574 0  -1.861553032322777 -1.303473466009551 0  -1.740864062934635 -1.460758393138232 0  -1.6069260668651 -1.6069260668651 0  -1.460758393138234 -1.740864062934634 0  -1.303473466009551 -1.861553032322777 0  -1.136268318745741 -1.968074459098488 0  -0.960415483478704 -2.059617650884611 0  -0.7772533064676684 -2.135485908716364 0  -0.5881757624760376 -2.195101829341138 0  -0.3946218457817288 -2.238011699605902 0  -0.1980646185618356 -2.263888949488254 0  -4.174582078573542e-16 -2.272536637491479 0  0.1980646185618348 -2.263888949488254 0  0.3946218457817279 -2.238011699605902 0  0.5881757624760369 -2.195101829341138 0  0.7772533064676694 -2.135485908716364 0  0.9604154834787014 -2.059617650884613 0  1.136268318745738 -1.968074459098489 0  1.303473466009551 -1.861553032322776 0  1.460758393138233 -1.740864062934635 0  1.606926066865099 -1.6069260668651 0  1.740864062934634 -1.460758393138234 0  1.861553032322776 -1.303473466009552 0  1.968074459098489 -1.136268318745739 0  2.059617650884611 -0.9604154834787041 0  2.135485908716364 -0.7772533064676685 0  2.195101829341138 -0.5881757624760378 0  2.238011699605902 -0.3946218457817289 0  2.263888949488254 -0.1980646185618358 0  0.001325528401756731 0.1127759740832974 0  -0.06849527451111767 -1.568799708578064 0  0.6407885503205082 -1.437574514659122 0  -0.8507236682922916 -1.335368672230893 0  1.19923387236318 -1.050227286115786 0  -1.354631197460746 -0.8629952502642844 0  1.545976531090551 -0.487444527888182 0  -1.618281736458337 -0.2130508324048083 0  1.632416945148055 0.2149117679327274 0  -1.594749457333711 0.4188552389976996 0  1.445456693782181 0.816090752592818 0  -1.294155087710515 1.04964461430755 0  1.020484428301152 1.329921199551412 0  -0.775240222288575 1.489222611125505 0  0.2196552361851947 1.668447163635315 0  -0.303306119525943 1.720463870424131 0  -0.4982865873044455 0.04623298690816194 0  0.5034247279694847 0.11849331702726 0  -0.2995379481689852 0.5050032138772288 0  0.2501834119786521 -0.3122615188102409 0  0.2475619617401101 0.5383287262434315 0  -0.5392230727378375 -1.710197094809649 0  0.5841051938702335 1.414104939973346 0  -0.2431799404240855 -0.3453884242952026 0  0.3993601521572317 -1.801397234359403 0  1.129187735714076 -1.471586107883693 0  -0.4100450612680924 -1.285993641631585 0  -1.262395685391069 -1.377663143180442 0  -1.724694079288816 -0.634664343535395 0  0.2529638285744619 -1.263519131879884 0  1.669252545907487 -0.868957874449054 0  1.865785396380391 -0.2456353073955675 0  -1.660493041651828 0.8643979651543905 0  -1.883935144248998 0.08225438477639518 0  1.803014638953945 0.5684883319932561 0  0.7833470160827147 -1.046869722908284 0  0.8625275799465537 1.68423879686144 0  -0.9447231452412445 -0.9306831611404971 0  1.400945153871534 1.283729717581123 0  -1.157239963768879 1.50814448324944 0  -1.29071469303039 -0.4586202142886138 0  1.175997464797852 -0.6477016177358457 0  1.391579509968472 -0.111945226842354 0  -0.2258853417079216 -1.899082055929623 0  -1.387449079101031 0.0947441325373376 0  0.7521532981080611 -1.773490683324411 0  -1.339347807526719 0.6841637780323275 0  -0.9005825387711335 -1.693654072856945 0  1.33009573746651 0.4285470764422858 0  -0.06625713427489294 1.44882614378528 0  -0.4302376328359045 1.382315526711071 0  -0.9109880973018264 1.131154073211115 0  1.087092384914416 0.9523549337682049 0  1.432180906637532 -1.305453694605633 0  1.944481355740361 0.0836412933905564 0  -1.67521249935895 -0.9685196010784576 0  -0.08102106345953798 -1.20158199920786 0  1.857956877807025 -0.5973096512188282 0  -1.870591700382222 0.5897952976175931 0  -0.03931463703739466 0.740447471596212 0  -0.6411569197081469 1.812775059353728 0  -1.942249320723636 -0.2557019740106893 0  -0.610792351902494 0.3674088834739494 0  0.5371062921559474 1.838575775836423 0  0.5752162429686141 -0.2135308698129529 0  -0.0190296887214286 1.923637612602137 0  -0.6327292509365252 -1.04114091583884 0  1.657786662519919 1.056126581454748 0  -1.429896733711159 1.339871577916403 0  0.1018484063367603 -1.946959741483569 0  0.5712503186246167 0.447712347149906 0  -1.076922254874378 0.8372486508289101 0  0.7615520873218267 1.160816958546658 0  -0.5862860206594958 -0.2527177494098495 0  1.238713190163402 1.537437051294962 0  -0.9548139525101352 1.729357483446595 0  0.01769719242580228 -0.5402397710479639 0  0.2804950738424098 1.367341858214155 0  -1.280272650482875 0.3826702378326665 0  -1.054744956750182 -0.6484958543420669 0  -1.533105765135685 -1.237970342344872 0  1.214095258849115 -0.3517796901054176 0  1.160370828461649 0.6680794292304097 0  0.4833950882070373 -1.070097048648606 0  0.270353379329238 1.955084896732981 0  -1.33913133789242 -0.1819466856177944 0  0.9928109513604353 -0.8602098510656825 0  0.2280416367051832 -1.559163971993265 0  -1.075283391770788 -1.17426916671575 0  -0.01910150605051886 0.4086115490038976 0  0.8951251407322663 -1.309015197821997 0  1.366200689405724 0.1589110010372861 0  -0.6628319615104999 1.241841300391306 0  1.433302730724158 -0.7345254823287062 0  -1.630710144328807 1.143608161280243 0  -0.2819596257971625 1.991059980305338 0  -0.006673822319876455 -0.1772790489291144 0  -0.2344471707430457 -0.02585953053467682 0  -0.2342380962861623 0.2435879710650554 0  1.662366229377642 -0.05931210624085351 0  -0.7519214722806878 0.09028439209037231 0  0.7459497721535564 0.2020271798303748 0  0.2160082464903616 0.7981911277898573 0  1.701355874829501 0.8036573681887527 0  -1.972669310179643 0.3385330983188627 0  -0.3008408186477401 0.7679704356916643 0  -0.5339005636346512 0.6143147261233655 0  1.969535225209983 0.3540132243701116 0  0.4325179399700271 -0.4864928762201959 0 
[...]
<PointData  Vectors="f_2727-0"> 
<DataArray  type="Float64"  Name="f_2727-0"  NumberOfComponents="3" format="ascii">-1.8567729480896154e-02 -7.2229592226804404e-02 0.0000000000000000e+00  -3.5015424932956663e-03 -8.1073648290823863e-02 0.0000000000000000e+00  1.3033791756695130e-02 -9.0247454275734870e-02 0.0000000000000000e+00  3.2834252210010559e-02 -9.9997508994746478e-02 0.0000000000000000e+00  5.6169676700071211e-02 -1.0736972091647257e-01 0.0000000000000000e+00  8.1180138419362335e-02 -1.0839983132090523e-01 0.0000000000000000e+00  1.0955490271265121e-01 -1.0569997831592204e-01 0.0000000000000000e+00  1.3742505390255055e-01 -9.9465331792385592e-02 0.0000000000000000e+00  1.4963768444452408e-01 -8.0468019046986958e-02 0.0000000000000000e+00  1.4075215455190021e-01 -5.4666299642704891e-02 0.0000000000000000e+00  1.2611665766571556e-01 -3.1761537031561031e-02 0.0000000000000000e+00  1.0510069874489757e-01 -9.7830648905660750e-03 0.0000000000000000e+00  8.1748166373542347e-02 1.1394376847479267e-02 0.0000000000000000e+00  5.7773507247044248e-02 2.5083718095419164e-02 0.0000000000000000e+00  2.9581122018738314e-02 3.4871015325927547e-02 0.0000000000000000e+00  -3.2733655633196217e-03 4.9122637287863133e-02 0.0000000000000000e+00  -3.8043918118368915e-02 3.7171655736613213e-02 0.0000000000000000e+00  -6.5427665067989887e-02 2.2454571423986883e-02 0.0000000000000000e+00  -9.1288902601022931e-02 4.8691720708354267e-03 0.0000000000000000e+00  -1.1009301233765614e-01 -1.6460639097500548e-02 0.0000000000000000e+00  -1.2794657037640117e-01 -4.0088010025904133e-02 0.0000000000000000e+00  -1.3962046352475249e-01 -6.2478934437598728e-02 0.0000000000000000e+00  -1.3934063172617414e-01 -8.7643986506193969e-02 0.0000000000000000e+00  -1.2354453463584358e-01 -1.0163302962003395e-01 0.0000000000000000e+00  -1.0215843186406068e-01 -1.0952119606064918e-01 0.0000000000000000e+00  -7.7074832169609100e-02 -1.1522929772668787e-01 0.0000000000000000e+00  -5.2209945098893228e-02 -1.1019355054427886e-01 0.0000000000000000e+00  -2.8223540205530827e-02 -9.9085435797659022e-02 0.0000000000000000e+00  -7.9811548859865331e-03 -9.0362255989458115e-02 0.0000000000000000e+00  1.0143060851217559e-02 -7.9237503418411556e-02 0.0000000000000000e+00  2.3930928184873860e-02 -6.6138795016478541e-02 0.0000000000000000e+00  3.7132481340540813e-02 -5.5089327138691919e-02 0.0000000000000000e+00  5.0290459336108102e-02 -4.2859734050183222e-02 0.0000000000000000e+00  5.6154626446512701e-02 -2.6973752944178763e-02 0.0000000000000000e+00  5.9194662721397937e-02 -1.0986919075901691e-02 0.0000000000000000e+00  6.3109977595325092e-02 -4.4870683048258510e-04 0.0000000000000000e+00  6.3050936622572593e-02 1.4397370200283153e-02 0.0000000000000000e+00  6.0352762088879852e-02 2.8422885020185820e-02 0.0000000000000000e+00  5.6731908101524009e-02 4.0549119354323600e-02 0.0000000000000000e+00  4.9524658497143395e-02 5.2576992503677887e-02 0.0000000000000000e+00  3.9287843993511547e-02 6.0031221039324047e-02 0.0000000000000000e+00  3.2063689209946247e-02 6.4090968154333253e-02 0.0000000000000000e+00  1.7956337107776610e-02 6.8658895301536960e-02 0.0000000000000000e+00  7.4066340532440182e-03 6.9745665588835035e-02 0.0000000000000000e+00  -1.6782394580065918e-03 7.3974246658615531e-02 0.0000000000000000e+00  -1.1007875218867884e-02 7.5315641058679564e-02 0.0000000000000000e+00  -2.5508978744796823e-02 7.1090152382190797e-02 0.0000000000000000e+00  -3.7713862488069690e-02 6.6170910093091811e-02 0.0000000000000000e+00  -4.4347023735037135e-02 5.8650483597017779e-02 0.0000000000000000e+00  -5.4410121178001931e-02 4.7495613925705039e-02 0.0000000000000000e+00  -6.0042640863755575e-02 3.6014928574841953e-02 0.0000000000000000e+00  -6.0407359711371227e-02 2.5126980119866176e-02 0.0000000000000000e+00  -6.1259144378434452e-02 1.3863143259437733e-02 0.0000000000000000e+00  -6.2521213643615847e-02 -2.1051374229835245e-03 0.0000000000000000e+00  -5.9604698675544063e-02 -1.7019690634364530e-02 0.0000000000000000e+00  -5.2364227105700822e-02 -3.0583730239501884e-02 0.0000000000000000e+00  -4.2269561668148298e-02 -4.4926139887695060e-02 0.0000000000000000e+00  -3.4840665136331869e-02 -6.1814841063069122e-02 0.0000000000000000e+00  1.3287801391133411e-01 1.2663724774815429e-05 0.0000000000000000e+00  1.3237306091994830e-01 1.1573141017685671e-02 0.0000000000000000e+00  1.3086903275592057e-01 2.3055179159521249e-02 0.0000000000000000e+00  1.2833206864773641e-01 3.4371445304706455e-02 0.0000000000000000e+00  1.2487394643342631e-01 4.5438462829921200e-02 0.0000000000000000e+00  1.2040122025944439e-01 5.6142124134700780e-02 0.0000000000000000e+00  1.1507857729625594e-01 6.6452775688192689e-02 0.0000000000000000e+00  1.0883293614550626e-01 7.6206412607408125e-02 0.0000000000000000e+00  1.0179565812726815e-01 8.5426771119203632e-02 0.0000000000000000e+00  9.3961246568912027e-02 9.3939403812611580e-02 0.0000000000000000e+00  8.5417842274378486e-02 1.0177205652275076e-01 0.0000000000000000e+00  7.6243771980139111e-02 1.0885207905221254e-01 0.0000000000000000e+00  6.6434407401192871e-02 1.1505815495604563e-01 0.0000000000000000e+00  5.6157946425313715e-02 1.2041047657110071e-01 0.0000000000000000e+00  4.5443522624678483e-02 1.2485196856834128e-01 0.0000000000000000e+00  3.4391831449840621e-02 1.2833800840317150e-01 0.0000000000000000e+00  2.3073119045416056e-02 1.3085119055820058e-01 0.0000000000000000e+00  1.1598883418328963e-02 1.3239946751484616e-01 0.0000000000000000e+00  -1.2360750319269845e-06 1.3286671336864131e-01 0.0000000000000000e+00  -1.1583951584998404e-02 1.3236658881528124e-01 0.0000000000000000e+00  -2.3096280388005080e-02 1.3088362740911599e-01 0.0000000000000000e+00  -3.4395353942048165e-02 1.2837751661953234e-01 0.0000000000000000e+00  -4.5441328604780666e-02 1.2485420969840152e-01 0.0000000000000000e+00  -5.6158574496296701e-02 1.2042001960537446e-01 0.0000000000000000e+00  -6.6451165847062330e-02 1.1509632253760606e-01 0.0000000000000000e+00  -7.6219874986928296e-02 1.0883133605809568e-01 0.0000000000000000e+00  -8.5403451635715347e-02 1.0177849972851616e-01 0.0000000000000000e+00  -9.3953346829577872e-02 9.3943879933314794e-02 0.0000000000000000e+00  -1.0180881357534408e-01 8.5417321598478924e-02 0.0000000000000000e+00  -1.0885862353806283e-01 7.6225738424991488e-02 0.0000000000000000e+00  -1.1506148885351161e-01 6.6426105996055529e-02 0.0000000000000000e+00  -1.2040826048471856e-01 5.6132632769977611e-02 0.0000000000000000e+00  -1.2487757784192784e-01 4.5429779745238694e-02 0.0000000000000000e+00  -1.2835593514261481e-01 3.4388006154029108e-02 0.0000000000000000e+00  -1.3086295596944425e-01 2.3078142640254408e-02 0.0000000000000000e+00  -1.3234689306208061e-01 1.1583184454604191e-02 0.0000000000000000e+00  -1.3287452229387411e-01 1.8260737762988992e-06 0.0000000000000000e+00  -1.3237475679109054e-01 -1.1580792924352497e-02 0.0000000000000000e+00  -1.3085952090401107e-01 -2.3074535619278067e-02 0.0000000000000000e+00  -1.2831386696388705e-01 -3.4382951610869246e-02 0.0000000000000000e+00  -1.2486142373199867e-01 -4.5452775682933745e-02 0.0000000000000000e+00  -1.2043146873419666e-01 -5.6151102425503641e-02 0.0000000000000000e+00  -1.1508596223778945e-01 -6.6425590416971089e-02 0.0000000000000000e+00  -1.0883056785541871e-01 -7.6196041973961404e-02 0.0000000000000000e+00  -1.0179635172618570e-01 -8.5422074862339090e-02 0.0000000000000000e+00  -9.3945119683882847e-02 -9.3940792985577865e-02 0.0000000000000000e+00  -8.5410801682607743e-02 -1.0180656039247654e-01 0.0000000000000000e+00  -7.6205626628875325e-02 -1.0883400736805482e-01 0.0000000000000000e+00  -6.6442556448312734e-02 -1.1509528692287511e-01 0.0000000000000000e+00  -5.6180616220723387e-02 -1.2043836191829070e-01 0.0000000000000000e+00  -4.5441535603390412e-02 -1.2485299987098085e-01 0.0000000000000000e+00  -3.4399042679050772e-02 -1.2837280343548990e-01 0.0000000000000000e+00  -2.3066991809518052e-02 -1.3088027146350462e-01 0.0000000000000000e+00  -1.1584651023356846e-02 -1.3239425937243754e-01 0.0000000000000000e+00  2.6939723875357041e-06 -1.3286766052644963e-01 0.0000000000000000e+00  1.1580557590511876e-02 -1.3239888709138947e-01 0.0000000000000000e+00  2.3067160016250695e-02 -1.3085307043185965e-01 0.0000000000000000e+00  3.4396307799977335e-02 -1.2837069489609643e-01 0.0000000000000000e+00  4.5446245657059216e-02 -1.2484999821512975e-01 0.0000000000000000e+00  5.6165670845810742e-02 -1.2044955413685339e-01 0.0000000000000000e+00  6.6436160486761459e-02 -1.1506207400576435e-01 0.0000000000000000e+00  7.6218838776685491e-02 -1.0886644646049837e-01 0.0000000000000000e+00  8.5419891290351407e-02 -1.0180036391315719e-01 0.0000000000000000e+00  9.3947012004802918e-02 -9.3938876990249845e-02 0.0000000000000000e+00  1.0180015191892783e-01 -8.5420791366282819e-02 0.0000000000000000e+00  1.0882258238355268e-01 -7.6200904354898708e-02 0.0000000000000000e+00  1.1504994379074610e-01 -6.6413170549634137e-02 0.0000000000000000e+00  1.2040511545148251e-01 -5.6133828468430402e-02 0.0000000000000000e+00  1.2482999271223609e-01 -4.5431852079073319e-02 0.0000000000000000e+00  1.2831392520116408e-01 -3.4385126491433521e-02 0.0000000000000000e+00  1.3082399169961276e-01 -2.3066599519132990e-02 0.0000000000000000e+00  1.3233642545067367e-01 -1.1580785450049511e-02 0.0000000000000000e+00  -1.0023487276063280e-03 1.4919640609469556e-01 0.0000000000000000e+00  -3.2801280547587329e-03 -8.4023053137860196e-02 0.0000000000000000e+00  3.0267107509672368e-02 -7.8050624180870706e-02 0.0000000000000000e+00  -4.0048588555206856e-02 -7.0926147970073170e-02 0.0000000000000000e+00  4.6910452658004725e-02 -5.4142626508323785e-02 0.0000000000000000e+00  -4.4143935761869230e-02 -4.9704125392704461e-02 0.0000000000000000e+00  5.0507060117885055e-02 -5.1635571499858535e-02 0.0000000000000000e+00  -6.2399657508955778e-02 -5.4458761234065824e-02 0.0000000000000000e+00  8.2634309226027214e-02 -4.4394154195999160e-02 0.0000000000000000e+00  -9.1941716357832798e-02 -3.5427514869994278e-02 0.0000000000000000e+00  1.0392911285786277e-01 -6.3676929916029043e-03 0.0000000000000000e+00  -1.0469163904891639e-01 1.7145724074742984e-02 0.0000000000000000e+00  9.2874250925855967e-02 5.0733933915668321e-02 0.0000000000000000e+00  -7.4520843317952473e-02 7.3913983547697459e-02 0.0000000000000000e+00  2.3616094312860852e-02 9.9677551489804200e-02 0.0000000000000000e+00  -2.9422926752170096e-02 1.0438134941404180e-01 0.0000000000000000e+00  -3.5832405327259849e-02 6.7214841994639424e-02 0.0000000000000000e+00  3.9054962898247850e-02 6.8013166616159096e-02 0.0000000000000000e+00  -3.3807993301172026e-02 9.7264990955858416e-02 0.0000000000000000e+00  -1.2283223965362376e-02 1.3266913904540756e-01 0.0000000000000000e+00  2.6740116899423412e-02 1.0152340787566845e-01 0.0000000000000000e+00  -3.7306343675160246e-02 -1.0199757080621989e-01 0.0000000000000000e+00  6.0003347418621893e-02 6.9820065633915213e-02 0.0000000000000000e+00  1.4920628859170506e-02 1.3102107587353598e-01 0.0000000000000000e+00  2.7910732973554449e-02 -1.1030038117805800e-01 0.0000000000000000e+00  7.5550815917545047e-02 -8.2976734054706569e-02 0.0000000000000000e+00  1.7306696394931399e-03 -5.9769969460948411e-02 0.0000000000000000e+00  -8.2097720119355871e-02 -7.5723859177854097e-02 0.0000000000000000e+00  -8.8917202150806077e-02 -4.9589228470390795e-02 0.0000000000000000e+00  -6.8725956173438458e-03 -4.9905116386718913e-02 0.0000000000000000e+00  9.3913443158277279e-02 -5.2574802696922156e-02 0.0000000000000000e+00  1.0318643010096906e-01 -3.9294113644258874e-02 0.0000000000000000e+00  -1.1953334032772531e-01 1.3265382432775292e-02 0.0000000000000000e+00  -1.1112699960460591e-01 -2.9689678374878938e-02 0.0000000000000000e+00  1.1940309236595269e-01 -4.9433748908826796e-03 0.0000000000000000e+00  -1.0887684913472733e-02 -6.0813274703640910e-02 0.0000000000000000e+00  7.6576030136435588e-02 9.4092590952046848e-02 0.0000000000000000e+00  1.2170168574867976e-02 -5.5297144337196263e-02 0.0000000000000000e+00  1.1158789816829440e-01 5.1669231966434505e-02 0.0000000000000000e+00  -9.7403906990701117e-02 7.4893388915365247e-02 0.0000000000000000e+00  7.0975040767404024e-03 -6.5885191847168803e-02 0.0000000000000000e+00  -1.8513652286470110e-02 -5.8008647519899204e-02 0.0000000000000000e+00  2.1736355941797333e-02 -7.0238123985643025e-02 0.0000000000000000e+00  -1.6727897694333447e-02 -1.1852149514693894e-01 0.0000000000000000e+00  -3.9057626302170412e-02 -6.7912475175765111e-02 0.0000000000000000e+00  5.3743452853955632e-02 -1.0810506164400804e-01 0.0000000000000000e+00  -8.7945266387772364e-02 -2.6349408974704940e-02 0.0000000000000000e+00  -6.4228288326984295e-02 -1.0094832820591035e-01 0.0000000000000000e+00  6.4812049111525452e-02 -5.1061303721469775e-02 0.0000000000000000e+00  -5.8029642961960693e-03 8.3979041377816574e-02 0.0000000000000000e+00  -4.4415387826838862e-02 7.2421354938840943e-02 0.0000000000000000e+00  -8.3810350898985156e-02 3.0140488901953505e-02 0.0000000000000000e+00  8.8380128028517385e-02 3.0031682845962256e-03 0.0000000000000000e+00  9.3000921217060467e-02 -7.2498506623452280e-02 0.0000000000000000e+00  1.1752001558086929e-01 -2.3852662513686070e-02 0.0000000000000000e+00  -9.8725962508532134e-02 -5.7388204513079535e-02 0.0000000000000000e+00  7.4771352365710728e-03 -3.6648526813729078e-02 0.0000000000000000e+00  1.0674676284007351e-01 -4.5381981008661400e-02 0.0000000000000000e+00  -1.2457609810362771e-01 3.0176040293663680e-03 0.0000000000000000e+00  -6.6361854741206526e-03 9.7018546993715732e-02 0.0000000000000000e+00  -5.6307052146400208e-02 1.0905574359423266e-01 0.0000000000000000e+00  -1.1330585885814429e-01 -3.6438411753481982e-02 0.0000000000000000e+00  -5.1641625822146098e-02 4.0571741113742961e-02 0.0000000000000000e+00  4.8663333172465149e-02 1.1181549729164830e-01 0.0000000000000000e+00  -4.8177422049931473e-03 2.3630660593570572e-02 0.0000000000000000e+00  -9.3448151665562662e-04 1.2202688373094568e-01 0.0000000000000000e+00  3.2116046295334023e-02 -5.9406624364142589e-02 0.0000000000000000e+00  1.2122881859559338e-01 3.6135328751502035e-02 0.0000000000000000e+00  -1.1148084112122378e-01 5.9980209383462713e-02 0.0000000000000000e+00  7.0307498126782365e-03 -1.2226600078757124e-01 0.0000000000000000e+00  5.0712145106707913e-02 4.9602983383207878e-02 0.0000000000000000e+00  -8.1348114017275555e-02 -8.8768943925116531e-03 0.0000000000000000e+00  7.3435625922108450e-02 3.8103339662574218e-02 0.0000000000000000e+00  1.1941374481867799e-02 1.1192624335171576e-02 0.0000000000000000e+00  9.9383266220925970e-02 7.9025857958053891e-02 0.0000000000000000e+00  -7.9055238109046133e-02 9.8809381396036955e-02 0.0000000000000000e+00  -4.8751549211773796e-03 1.3352578400650247e-01 0.0000000000000000e+00  3.0499260495627779e-02 7.2055114085481264e-02 0.0000000000000000e+00  -5.5311462217452853e-02 -5.6568542757543680e-02 0.0000000000000000e+00  5.2913693363047291e-02 -6.5266850786548813e-02 0.0000000000000000e+00  -9.7569741155526801e-02 -6.9403127694048605e-02 0.0000000000000000e+00  -2.6816541465603857e-02 -7.8172915856715416e-02 0.0000000000000000e+00  7.3510613525669274e-02 -3.0092553807975889e-02 0.0000000000000000e+00  -3.6745535803740237e-02 -5.0640299046884371e-02 0.0000000000000000e+00  2.4107024511821680e-02 1.2298470197121450e-01 0.0000000000000000e+00  -9.5540824733619106e-03 -7.4281329574732893e-02 0.0000000000000000e+00  -1.7503193920244971e-02 -5.6799965445185056e-02 0.0000000000000000e+00  1.0592359511135463e-02 -8.3977237872859642e-02 0.0000000000000000e+00  -4.6037183431225585e-02 -5.9773695859873896e-02 0.0000000000000000e+00  -3.2879979736072087e-03 1.2526112997015462e-01 0.0000000000000000e+00  4.1947567116498718e-02 -6.9720219986380533e-02 0.0000000000000000e+00  4.0863329377091313e-02 -6.6882818867828944e-02 0.0000000000000000e+00  -6.5814844020428684e-02 5.1320348213504237e-02 0.0000000000000000e+00  4.6117422068141269e-02 -4.9056977662243775e-02 0.0000000000000000e+00  -1.1979306601401853e-01 4.4977813757275192e-02 0.0000000000000000e+00  -2.3071199093093790e-02 1.2533033402420687e-01 0.0000000000000000e+00  -1.4193776094377764e-03 1.6174632405067732e-01 0.0000000000000000e+00  -1.9089825277616421e-02 1.3632424915512104e-01 0.0000000000000000e+00  -2.6546393644835759e-02 1.2243725332020237e-01 0.0000000000000000e+00  7.3379404255530953e-02 -4.9694639698310963e-02 0.0000000000000000e+00  -3.2863958841313816e-02 -1.6403667828843643e-02 0.0000000000000000e+00  4.2084209825667768e-02 -4.3382164904141726e-03 0.0000000000000000e+00  2.3609940476751499e-02 8.6210499878932867e-02 0.0000000000000000e+00  1.2007120702709745e-01 9.7851871595450897e-03 0.0000000000000000e+00  -1.2556157272156801e-01 -7.2397431256668752e-03 0.0000000000000000e+00  -3.3769905250586749e-02 8.2930798529153374e-02 0.0000000000000000e+00  -5.2102523831007955e-02 5.6186688429390126e-02 0.0000000000000000e+00  1.2546209325833174e-01 -6.1443592948981678e-03 0.0000000000000000e+00  -7.6403452136518182e-02 5.1341457425211671e-02 0.0000000000000000e+00  8.0464086942262314e-02 -5.6356734804566676e-02 0.0000000000000000e+00  2.6359144499914323e-02 1.2017321416933921e-01 0.0000000000000000e+00  1.7118263592070689e-02 1.3561123780012180e-01 0.0000000000000000e+00  4.5685149491542856e-02 6.7045672472098541e-02 0.0000000000000000e+00  -7.3889631348882850e-02 -5.0878537804022808e-02 0.0000000000000000e+00  7.1804800062190796e-02 -1.0324652026939411e-01 0.0000000000000000e+00  9.2581804469006934e-02 -3.3411837001472364e-02 0.0000000000000000e+00  -1.8496978232637462e-02 -9.5962032661794774e-02 0.0000000000000000e+00  3.8282594000095441e-02 -3.1585000909233392e-02 0.0000000000000000e+00  -5.2238890294068231e-02 -1.1585590671596223e-01 0.0000000000000000e+00  -4.3687481120526825e-02 -8.6735831359364177e-02 0.0000000000000000e+00  -3.4488826743978157e-02 -1.2218706812228862e-01 0.0000000000000000e+00  -8.1034333827792585e-02 -9.5625147269337324e-02 0.0000000000000000e+00  6.4764393486105049e-02 8.0992690673557341e-02 0.0000000000000000e+00  -5.1020331687755133e-02 9.0883589651197583e-02 0.0000000000000000e+00  -1.0308812483530250e-01 4.4850691595959009e-02 0.0000000000000000e+00  -5.6405265158893424e-03 1.0307629313233416e-01 0.0000000000000000e+00  1.0690491152032290e-01 -6.4092283265013830e-02 0.0000000000000000e+00  5.5913463096186763e-02 -8.8617711150058939e-02 0.0000000000000000e+00  -1.1738501355972036e-01 -4.4878362730713120e-02 0.0000000000000000e+00  1.1149764343719944e-01 2.1873864890478580e-02 0.0000000000000000e+00  -4.3346394623699963e-02 -5.1858476094793889e-02 0.0000000000000000e+00  -7.0030089197415935e-02 -5.9374757161176822e-02 0.0000000000000000e+00  6.7069862996456189e-02 5.1075419336201640e-02 0.0000000000000000e+00  -6.6937352592188984e-02 -3.7298030449286597e-02 0.0000000000000000e+00  6.0954236863324719e-02 1.1431768755549900e-01 0.0000000000000000e+00  1.0142343679129810e-01 3.0338711004449098e-02 0.0000000000000000e+00  4.3353124795881569e-02 -1.2157307530080025e-01 0.0000000000000000e+00  -1.1241671809907408e-01 -5.3173735402615704e-02 0.0000000000000000e+00  -1.1035606840018730e-01 -1.2011473099860661e-02 0.0000000000000000e+00  -8.9844781771511159e-02 5.5976609277286316e-02 0.0000000000000000e+00  2.2736840426464591e-02 -2.2242698736581572e-03 0.0000000000000000e+00  -4.1568607155922373e-02 -5.6671962059597618e-02 0.0000000000000000e+00  4.6323484765495915e-02 9.1605811928832395e-02 0.0000000000000000e+00  4.7522304785934458e-02 6.0161412399935069e-02 0.0000000000000000e+00  7.8453455133162917e-02 5.9857423967144135e-02 0.0000000000000000e+00  -1.0288788399872455e-01 -3.1193765571077316e-02 0.0000000000000000e+00  4.9797189970820700e-02 -5.5749651236027244e-02 0.0000000000000000e+00  -2.1560694347071929e-02 -8.1148388345486780e-02 0.0000000000000000e+00  -1.8450061295603254e-02 -6.9124320868209743e-02 0.0000000000000000e+00  -2.0651901945223138e-03 -6.4300709436221917e-02 0.000000