<?xml version="1.0"?>
<VTKFile type="UnstructuredGrid"  version="0.1"  >
<UnstructuredGrid>
<Piece  NumberOfPoints="1025" NumberOfCells="1947">
<Points>
<DataArray  type="Float64"  NumberOfComponents="3"  format="ascii">-0.9989398849165209 0.09931479191286598 0  -0.9946988482773367 -0.008325179311981158 0  -0.9781437904137291 -0.1147494362174899 0  -0.9495987604836386 -0.2185826266363639 0  -0.9093964179044023 -0.3187370732717599 0  -0.8581378686535414 -0.4136585547554441 0  -0.796814615129426 -0.5019023431139606 0  -0.7263176544516702 -0.5822039330861936 0  -0.6483355912932115 -0.653630361725831 0  -0.5642021605916901 -0.7154288356095746 0  -0.474614599481113 -0.7678487475923335 0  -0.3804368740209198 -0.8107476221787318 0  -0.282147584644003 -0.8440797148836915 0  -0.1811961654452236 -0.8673052731934505 0  -0.07828798681863698 -0.8803078257383092 0  0.02528941514882124 -0.8831110340501014 0  0.1285230092098288 -0.8751606530417851 0  0.2304885299770417 -0.856995346780837 0  0.3301653421804339 -0.8285952139320444 0  0.426292274058037 -0.7904319618665443 0  0.5185646773049706 -0.7424685421531916 0  0.6054694751881567 -0.6852799242766648 0  0.6863724046142075 -0.618907425528068 0  0.7607391797862829 -0.5431382175754161 0  0.8269281255174724 -0.4587656685110582 0  0.8835380801078452 -0.3672162163684521 0  0.9295629985614619 -0.2696484509142655 0  0.9641690836753439 -0.1674679569349838 0  0.9868494664138774 -0.06232280580125164 0  0.9974663574638875 0.04483487913401032 0  0.9958199880309736 0.152264161872968 0  0.9819221942681509 0.2588142408486526 0  0.9560034289082766 0.3631751905827347 0  0.9186508015699506 0.4638077481178273 0  0.8703402642444823 0.5597622459861866 0  0.8116627849016189 0.6497314136202968 0  0.7432270776326564 0.7328628820240303 0  0.6663411726336667 0.8078956990838424 0  0.5816441856571267 0.8741357979600425 0  0.490474259808987 0.9309169630002722 0  0.3936041571432575 0.9778819919040231 0  0.2921391635298111 1.014197545614043 0  0.1876418537198268 1.039567852306311 0  0.08092054534661788 1.053817934673124 0  -0.02681758360094077 1.056568649601765 0  -0.1341690872838017 1.04785721800791 0  -0.2399468212615935 1.028026997952545 0  -0.3428337874683484 0.9970871190544209 0  -0.4420711838035482 0.9555545661676713 0  -0.5362617317274616 0.9038261920223264 0  -0.6244796975456106 0.8421906043008999 0  -0.7055040043500345 0.7713886154623648 0  -0.7782885420046705 0.692480219101664 0  -0.8419180313642869 0.6060185899735203 0  -0.8958605213885366 0.5129979012618603 0  -0.9390558597302101 0.4147896107289393 0  -0.9709265166127565 0.3122016136473911 0  -0.9910482538696194 0.2064987366444114 0  2.213405270840842 7.098205618444851e-06 0  2.204497439311988 0.1983581306037998 0  2.177824526735095 0.3952668707997989 0  2.133642815967878 0.5888403746567114 0  2.072265605915104 0.7777413006816399 0  1.994229779718326 0.9603148849922595 0  1.900089366311145 1.13524928311936 0  1.790676452724348 1.301003120154502 0  1.666818908296772 1.456321753987068 0  1.529607243080944 1.599834116290117 0  1.380036925857594 1.730511260712916 0  1.219353714990925 1.847253065729035 0  1.048906793610392 1.949090719398348 0  0.8698695444749127 2.035309528727318 0  0.6840357913540295 2.105054215842908 0  0.4925290206542 2.157905705021133 0  0.2971117363584249 2.19336687092912 0  0.09930281338518707 2.211170277397843 0  -0.09936209503002233 2.211173173037867 0  -0.2970547521086445 2.193380416119997 0  -0.4925271276942376 2.157905925594714 0  -0.6840355898584302 2.105054396984899 0  -0.869869218530849 2.035309813862624 0  -1.048860215413721 1.949108908082306 0  -1.219399818791052 1.847220515816033 0  -1.380031621263251 1.73051476592788 0  -1.529603469690866 1.59983815532903 0  -1.666853671734703 1.456285584955371 0  -1.790683372473828 1.301007362257213 0  -1.900096066015722 1.135255052306933 0  -1.994212610814245 0.9603547043421048 0  -2.072248554055173 0.77778034341797 0  -2.133654159530987 0.5887901725956065 0  -2.177822317127844 0.3952759747041851 0  -2.204487028694305 0.1984084794115328 0  -2.213399487840291 -1.512405818551226e-06 0  -2.204487097605748 -0.1984667221407608 0  -2.177843195455957 -0.3951605908492415 0  -2.133632462307674 -0.5888453804489169 0  -2.072244405318354 -0.7777892922274845 0  -1.994232505924911 -0.9603070637194653 0  -1.900068081874132 -1.135295540237633 0  -1.790687268401644 -1.301001425436453 0  -1.666848135599565 -1.456290606431414 0  -1.529635887965284 -1.599802441006681 0  -1.379989610517165 -1.730544549473572 0  -1.219406522607378 -1.847215463285464 0  -1.048859799850953 -1.949108395056715 0  -0.8698691451868737 -2.035309447630176 0  -0.6840350646209138 -2.105054296219232 0  -0.4924817197389221 -2.157920759243241 0  -0.2971130570624482 -2.193374302886503 0  -0.09935189713953185 -2.211173848023699 0  0.09936223486157429 -2.21117280713384 0  0.2970550465178491 -2.193380166850246 0  0.4925769719495254 -2.157898906811726 0  0.6839737707384959 -2.105076996365861 0  0.8699306549078751 -2.035285859180122 0  1.048819755915516 -1.949137592523009 0  1.219398187289354 -1.847221890760074 0  1.380036145523498 -1.730510106038994 0  1.52956613866793 -1.59987046522948 0  1.666884087775232 -1.456246562412687 0  1.790678808010153 -1.30101277260215 0  1.900098917996513 -1.135248256389498 0  1.994186369340635 -0.9604041693092639 0  2.072259663517142 -0.7777328872573515 0  2.133633040357772 -0.588844496491468 0  2.177841967604118 -0.3951690870268688 0  2.204494487144548 -0.1984155312357258 0  0.0001635493535139743 0.09160617161410428 0  0.1330482346576874 -1.54539317972939 0  -0.5508793499022935 -1.454244123053514 0  0.7842707586780402 -1.347020809037893 0  -1.135314562625617 -1.086031861872861 0  1.317269807626327 -0.870515147132688 0  -1.513114256435017 -0.4936280996329332 0  1.579698744186235 -0.2375182029531137 0  -1.597777880046335 0.2022129094601988 0  1.548074623811151 0.4590209528217614 0  -1.377896535283444 0.8570625952680341 0  1.275786531252555 1.01392520545222 0  0.6948761994245699 1.477892800945701 0  -0.9621200358703611 1.320682395188242 0  -0.294190658170183 1.609024106726838 0  -0.4968599556417494 0.01905160517192206 0  0.5014868956384695 0.09433389101274207 0  0.1995937876728287 1.53690162781847 0  -0.3015862430668118 0.4760605347311395 0  0.2512302621284084 -0.3282092254136096 0  0.2454350903686376 0.5113365346615699 0  -0.2391550460788591 -0.3639965692503574 0  1.218016780991396 -1.294626300116007 0  0.5363857208084654 -1.700026177497252 0  -0.3249960670890898 -1.790036287721169 0  -0.9359382234326812 -1.565613134078728 0  -1.524773956610439 -1.006434602268846 0  1.823110205433104 0.07995489384841027 0  1.672896453626517 -0.6458424176030965 0  -1.817219157143424 -0.2476336712272619 0  -1.699998097079468 0.6019553075770235 0  1.111411311435669 1.404612958713967 0  0.849866873717067 1.135342553301974 0  -0.1835282956787816 -1.276896771051248 0  -0.006827641254657717 1.849393312171551 0  0.915909212524877 -0.9601579179467052 0  0.3927133453252563 -1.233377530308564 0  -0.7292380919207281 -1.087015016799658 0  -0.7086107512935557 1.6521146062411 0  -0.5357220027177401 1.318408738352906 0  1.62664497996696 0.8728703217940262 0  -1.336626437611203 1.275299063614307 0  -1.157084596144953 -0.67612680686577 0  0.4797708586728575 1.784697756304776 0  1.264364506630398 -0.4798885384482835 0  -1.472448815951483 -0.1366644732875819 0  1.457904043250384 0.1048153810807694 0  -1.340376659450726 0.478881642320259 0  -1.735949392004999 -0.7457024551108598 0  0.1693809514876612 -1.881556655048721 0  -0.6594318051036445 -1.771586496573206 0  0.9712113306833943 -1.624622557179457 0  1.234993202880831 0.648435608035018 0  -0.9977696216906068 0.9684163416238881 0  -1.895304841744965 0.06881451568946341 0  -1.382913457426897 -1.2986050320972 0  -0.0422035144106654 0.7098940718282923 0  -0.6105859238812683 0.3354371842438832 0  0.5736705655074984 -0.2360712594879981 0  1.506201305153623 -1.139182539082198 0  1.860175636746628 0.3963087367294026 0  0.5676232856267851 0.4284365416992492 0  -1.222427867283427 -0.3714225723313839 0  1.895266073688373 -0.2578657578428053 0  1.275479831888782 -0.1722074705769934 0  0.4235304006177874 1.306109978032614 0  -0.07666905741372641 1.372767188390231 0  -1.293278046272754 0.1766500160841241 0  -1.574933629166023 1.088487411158316 0  1.271193924996097 0.339077838505696 0  -0.580169788374675 -0.2804340768483886 0  0.02086228759936063 -0.555318557761868 0  1.034689084719116 -0.6813789030735783 0  -0.9295942523889613 -0.8680978068119761 0  0.6191854817264233 -1.032105134220108 0  -1.13302673988694 0.6896183691898614 0  0.941309496673094 1.661536015820905 0  1.006892401072067 0.8779903107541739 0  1.401761827691758 1.297900030067001 0  -1.176043459998791 1.521103490871581 0  -0.2948173832552402 1.901575709262096 0  0.0983619425272293 -1.177324668447534 0  -0.4296377466595959 -1.108511282510338 0  -0.750292516765251 1.121413649938361 0  -1.845914293648755 0.3531670939447398 0  -0.02090322250113261 0.3839028840004728 0  1.700984856274711 -0.9300688468071538 0  1.81632056832671 0.6706706902267545 0  -0.1520283579110172 -1.561786466882451 0  -1.208210623699265 -1.513648801176127 0  -0.7908607117407914 -1.344082269612803 0  -0.004902622224014104 -0.195793123081021 0  -0.2337431344656463 -0.04899835630003825 0  -0.2364023815876235 0.2177832522797323 0  -1.423115613787003 -0.7515568516490742 0  -0.7399180998678707 0.1077801947769651 0  0.7423699442681007 0.1748938792103644 0  0.2123268757977682 0.7680887803216384 0  -1.767714392960937 -0.4952841544671977 0  -0.3713374851304841 0.7158926351489777 0  -0.0717088551216723 -1.802746722838118 0  0.2682827747127987 -0.5811016559357574 0  -1.738230892104272 0.8716556386815996 0  0.2493348243221872 0.2286028751994519 0  0.2421528367085004 -0.04930782571634756 0  0.166984518432994 1.288512243392168 0  0.4535632923444449 0.6561592923140175 0  -1.226112192732725 -0.0964890182410873 0  0.2319448846552228 1.782530282342532 0  0.545105357060974 -1.442301653845596 0 
[...]
<PointData  Vectors="f_2427-0"> 
<DataArray  type="Float64"  Name="f_2427-0"  NumberOfComponents="3" format="ascii">-2.0709465178291111e-02 -7.3536413635125170e-02 0.0000000000000000e+00  -3.7868996950864236e-03 -8.7549830808793597e-02 0.0000000000000000e+00  1.6004549461979854e-02 -9.8219931450159323e-02 0.0000000000000000e+00  3.7775091811277632e-02 -1.0547180530886123e-01 0.0000000000000000e+00  6.2746477832053615e-02 -1.1244516507904342e-01 0.0000000000000000e+00  8.9442632570730429e-02 -1.1444742874102316e-01 0.0000000000000000e+00  1.1299409983135020e-01 -1.0879446336079784e-01 0.0000000000000000e+00  1.3115528044671285e-01 -9.6265220276336078e-02 0.0000000000000000e+00  1.3948557682852902e-01 -7.6209974601193289e-02 0.0000000000000000e+00  1.3213252265724021e-01 -5.0676078013598080e-02 0.0000000000000000e+00  1.1598383742663200e-01 -2.5715822947221887e-02 0.0000000000000000e+00  9.4539492559953642e-02 -3.3641244695902109e-03 0.0000000000000000e+00  7.2636304812578489e-02 1.4000035372005221e-02 0.0000000000000000e+00  4.7900116951130264e-02 2.8354207175527921e-02 0.0000000000000000e+00  2.2895460323277793e-02 3.6891765848960131e-02 0.0000000000000000e+00  -3.7982036176913594e-03 4.0775036377178761e-02 0.0000000000000000e+00  -3.1363104920915180e-02 3.3978550761450621e-02 0.0000000000000000e+00  -5.7266207912510178e-02 2.3319406723331975e-02 0.0000000000000000e+00  -8.2648816628789881e-02 6.8967773254673828e-03 0.0000000000000000e+00  -1.0600745227923349e-01 -1.3419781922316118e-02 0.0000000000000000e+00  -1.2127188864682580e-01 -3.5322401345992210e-02 0.0000000000000000e+00  -1.3251539122427353e-01 -6.0225982949663678e-02 0.0000000000000000e+00  -1.3706610507939815e-01 -8.7385453692242140e-02 0.0000000000000000e+00  -1.2507976890460662e-01 -1.0559981868121342e-01 0.0000000000000000e+00  -1.0261626212086096e-01 -1.1421274857226200e-01 0.0000000000000000e+00  -7.7566756083376168e-02 -1.1613823812236042e-01 0.0000000000000000e+00  -5.0972507103307745e-02 -1.1118863486272221e-01 0.0000000000000000e+00  -2.6802955716942887e-02 -1.0292384420905587e-01 0.0000000000000000e+00  -6.7964267086453979e-03 -9.5356039702444551e-02 0.0000000000000000e+00  1.1491444272465342e-02 -8.2812115649070983e-02 0.0000000000000000e+00  2.7779759048140600e-02 -7.1255843317283518e-02 0.0000000000000000e+00  4.0412424431644119e-02 -5.8429271231269030e-02 0.0000000000000000e+00  5.0725824680992501e-02 -4.2203964384044182e-02 0.0000000000000000e+00  5.9355234620689555e-02 -2.8866721854468813e-02 0.0000000000000000e+00  6.4554356981285643e-02 -1.3829756564474690e-02 0.0000000000000000e+00  6.7321476942096170e-02 5.0716217787057680e-04 0.0000000000000000e+00  6.5110504885136450e-02 1.7348897720934613e-02 0.0000000000000000e+00  6.2497541913765831e-02 3.0466482079698182e-02 0.0000000000000000e+00  5.7113806745030700e-02 4.2132311906591807e-02 0.0000000000000000e+00  5.2182991938107354e-02 5.1578816619058117e-02 0.0000000000000000e+00  4.3071276616813668e-02 6.1084535493744319e-02 0.0000000000000000e+00  2.9858936796783961e-02 6.8390251694158799e-02 0.0000000000000000e+00  2.0669363683074676e-02 7.2827510898632555e-02 0.0000000000000000e+00  9.8573023480746907e-03 7.4501866852841034e-02 0.0000000000000000e+00  -3.4620964789929477e-03 7.6751429815116984e-02 0.0000000000000000e+00  -1.5868066699686413e-02 7.5138198615912297e-02 0.0000000000000000e+00  -2.6369933989241538e-02 7.2076223027614142e-02 0.0000000000000000e+00  -3.5769915042334795e-02 6.6788188367745915e-02 0.0000000000000000e+00  -4.5547455332910797e-02 5.8695783909875732e-02 0.0000000000000000e+00  -5.2160461857578666e-02 4.9529774644376183e-02 0.0000000000000000e+00  -5.9729277211087020e-02 3.7037710591108726e-02 0.0000000000000000e+00  -6.4781017230777588e-02 2.3382582818823345e-02 0.0000000000000000e+00  -6.5432334289018915e-02 1.0581032797943731e-02 0.0000000000000000e+00  -6.3585526596988490e-02 -2.8025620785663884e-03 0.0000000000000000e+00  -6.1197638914467604e-02 -1.9202342365098338e-02 0.0000000000000000e+00  -5.5529406267202458e-02 -3.1624784459853533e-02 0.0000000000000000e+00  -4.6402032373001327e-02 -4.5700069851823982e-02 0.0000000000000000e+00  -3.5067374656159306e-02 -6.1764819754006911e-02 0.0000000000000000e+00  1.2986699293469339e-01 1.4274199502764082e-04 0.0000000000000000e+00  1.2939917940134316e-01 1.0631391525776888e-02 0.0000000000000000e+00  1.2757023349095500e-01 2.4160579675215777e-02 0.0000000000000000e+00  1.2523380625301789e-01 3.4409065867809972e-02 0.0000000000000000e+00  1.2155389042775516e-01 4.5760629480544657e-02 0.0000000000000000e+00  1.1742164073738751e-01 5.5424612802159191e-02 0.0000000000000000e+00  1.1137145591916012e-01 6.6514972523024962e-02 0.0000000000000000e+00  1.0494462329300457e-01 7.6258436323342449e-02 0.0000000000000000e+00  9.7123695343200367e-02 8.6186761816221563e-02 0.0000000000000000e+00  8.9857680823883540e-02 9.3789497956934822e-02 0.0000000000000000e+00  8.0997054115816286e-02 1.0156089051230939e-01 0.0000000000000000e+00  7.1451198796545448e-02 1.0846853048240966e-01 0.0000000000000000e+00  6.2417306052265815e-02 1.1387419387869853e-01 0.0000000000000000e+00  4.9947941654085760e-02 1.1985915572555272e-01 0.0000000000000000e+00  4.1261278250230869e-02 1.2312169566555423e-01 0.0000000000000000e+00  2.8898851611664833e-02 1.2651457802218533e-01 0.0000000000000000e+00  1.7415263157018312e-02 1.2856198437056601e-01 0.0000000000000000e+00  5.8012024340399464e-03 1.2961275791688523e-01 0.0000000000000000e+00  -6.9990986446364385e-03 1.2966891309673986e-01 0.0000000000000000e+00  -1.6263689286541348e-02 1.2883312467771446e-01 0.0000000000000000e+00  -2.8860909855006271e-02 1.2651881133007897e-01 0.0000000000000000e+00  -4.1257206998544925e-02 1.2312513839728008e-01 0.0000000000000000e+00  -4.9941082230032165e-02 1.1986488399167383e-01 0.0000000000000000e+00  -6.1477080358118441e-02 1.1424364254124236e-01 0.0000000000000000e+00  -7.2382952406003093e-02 1.0781158714674177e-01 0.0000000000000000e+00  -8.0890282539229391e-02 1.0163120707115809e-01 0.0000000000000000e+00  -8.9781343475518804e-02 9.3871163255727683e-02 0.0000000000000000e+00  -9.7825668983579875e-02 8.5455129119409667e-02 0.0000000000000000e+00  -1.0508237609144752e-01 7.6341661843202374e-02 0.0000000000000000e+00  -1.1150388014157939e-01 6.6630156012572939e-02 0.0000000000000000e+00  -1.1707379021325726e-01 5.6229213779337942e-02 0.0000000000000000e+00  -1.2120974109697687e-01 4.6550859471858538e-02 0.0000000000000000e+00  -1.2546383264934347e-01 3.3394693542763539e-02 0.0000000000000000e+00  -1.2752564771160660e-01 2.4344534561060140e-02 0.0000000000000000e+00  -1.2919116296180486e-01 1.1648202279009034e-02 0.0000000000000000e+00  -1.2975259085439528e-01 -3.1165936092404469e-05 0.0000000000000000e+00  -1.2919044881144973e-01 -1.2824366063569074e-02 0.0000000000000000e+00  -1.2794759055288035e-01 -2.2013570857852088e-02 0.0000000000000000e+00  -1.2502835025920317e-01 -3.4509930768396160e-02 0.0000000000000000e+00  -1.2112647040995346e-01 -4.6731254369004362e-02 0.0000000000000000e+00  -1.1747678236363600e-01 -5.5267191373046032e-02 0.0000000000000000e+00  -1.1093951991017929e-01 -6.7449100890875538e-02 0.0000000000000000e+00  -1.0516091409146930e-01 -7.6222435540537953e-02 0.0000000000000000e+00  -9.7714225107626548e-02 -8.5556550988797622e-02 0.0000000000000000e+00  -9.0437586045459803e-02 -9.3150000664947386e-02 0.0000000000000000e+00  -8.0041767598675109e-02 -1.0223390925553776e-01 0.0000000000000000e+00  -7.2517914674621084e-02 -1.0770961385574007e-01 0.0000000000000000e+00  -6.1469285870972598e-02 -1.1423310684701783e-01 0.0000000000000000e+00  -4.9939422044547162e-02 -1.1985766594834488e-01 0.0000000000000000e+00  -4.1246607846430347e-02 -1.2312314318697952e-01 0.0000000000000000e+00  -2.7942301384301375e-02 -1.2681721341527341e-01 0.0000000000000000e+00  -1.7441298001861033e-02 -1.2870907231497972e-01 0.0000000000000000e+00  -6.7940015851459977e-03 -1.2968278283537729e-01 0.0000000000000000e+00  7.0015037219897163e-03 -1.2966173958549959e-01 0.0000000000000000e+00  1.6269919628113728e-02 -1.2882819470354834e-01 0.0000000000000000e+00  2.9867350941415696e-02 -1.2637556467254915e-01 0.0000000000000000e+00  4.0009205454414734e-02 -1.2358062121322444e-01 0.0000000000000000e+00  5.1180975812925730e-02 -1.1938075249725089e-01 0.0000000000000000e+00  6.0658905085269971e-02 -1.1482090044347174e-01 0.0000000000000000e+00  7.2349866942721955e-02 -1.0783919731181935e-01 0.0000000000000000e+00  8.0981382345675409e-02 -1.0153741076576482e-01 0.0000000000000000e+00  8.9027522188722549e-02 -9.4524716741816658e-02 0.0000000000000000e+00  9.8440753593139890e-02 -8.4667638982102389e-02 0.0000000000000000e+00  1.0499095436575777e-01 -7.6450349828109443e-02 0.0000000000000000e+00  1.1156129378717364e-01 -6.6494110704652262e-02 0.0000000000000000e+00  1.1654483069517509e-01 -5.7228984386382027e-02 0.0000000000000000e+00  1.2143669624392231e-01 -4.5593034481461826e-02 0.0000000000000000e+00  1.2503995161707157e-01 -3.4492038548863915e-02 0.0000000000000000e+00  1.2792298271410973e-01 -2.2184895947361376e-02 0.0000000000000000e+00  1.2933889952319630e-01 -1.1789875956992638e-02 0.0000000000000000e+00  -6.3806193203258044e-04 1.5598901889564923e-01 0.0000000000000000e+00  5.7113306728052418e-03 -8.4767033380798357e-02 0.0000000000000000e+00  -2.6901154428023683e-02 -8.0412928140941864e-02 0.0000000000000000e+00  3.8134561862900422e-02 -7.5150162150610073e-02 0.0000000000000000e+00  -4.7352186609626042e-02 -5.6830201424558961e-02 0.0000000000000000e+00  4.5789941247154284e-02 -5.0163270406828421e-02 0.0000000000000000e+00  -4.8469832547830570e-02 -5.4754829779194304e-02 0.0000000000000000e+00  5.8497592360404117e-02 -5.6256324409806484e-02 0.0000000000000000e+00  -8.2386533047525842e-02 -4.8610058453298161e-02 0.0000000000000000e+00  9.4483801367319042e-02 -3.5016049561969596e-02 0.0000000000000000e+00  -1.0676541832015737e-01 -2.4955735040187231e-03 0.0000000000000000e+00  1.0577284572230530e-01 1.4308397779866552e-02 0.0000000000000000e+00  7.0500278988410284e-02 7.6185553770705336e-02 0.0000000000000000e+00  -9.1359033453106794e-02 5.4024651339184514e-02 0.0000000000000000e+00  -3.1044576658714889e-02 9.6974047625528623e-02 0.0000000000000000e+00  -3.7759543986815747e-02 7.2289548855489424e-02 0.0000000000000000e+00  4.1907977112337950e-02 7.1184144522712253e-02 0.0000000000000000e+00  2.2671051536676586e-02 9.2194520579687148e-02 0.0000000000000000e+00  -3.4975678694097040e-02 1.0192331350551137e-01 0.0000000000000000e+00  -1.0326784273177720e-02 1.3868784497451755e-01 0.0000000000000000e+00  2.9557894453982516e-02 1.0459057489775546e-01 0.0000000000000000e+00  1.3303113365520475e-02 1.3808773650162923e-01 0.0000000000000000e+00  7.7423742453347752e-02 -7.0864970245179432e-02 0.0000000000000000e+00  3.7070517546982734e-02 -1.0386823820753398e-01 0.0000000000000000e+00  -2.3678424853458273e-02 -1.1092111186282427e-01 0.0000000000000000e+00  -6.5690100185076386e-02 -9.2158511699849788e-02 0.0000000000000000e+00  -8.8040361980139495e-02 -5.6883238017684960e-02 0.0000000000000000e+00  1.0696358750595382e-01 -3.2993508164345722e-02 0.0000000000000000e+00  8.6111157710176287e-02 -4.8671999376542048e-02 0.0000000000000000e+00  -1.0011433472328025e-01 -4.2514803944878159e-02 0.0000000000000000e+00  -1.1628879772933148e-01 -9.5220605341083848e-03 0.0000000000000000e+00  9.8406079167785251e-02 6.3844297740764930e-02 0.0000000000000000e+00  8.2944932904738908e-02 3.3241228069502450e-02 0.0000000000000000e+00  4.1588002820700017e-03 -5.0881770500706185e-02 0.0000000000000000e+00  -3.3220278456776490e-04 1.1830660429272769e-01 0.0000000000000000e+00  -5.0159103738979111e-03 -6.1193358275185489e-02 0.0000000000000000e+00  -6.4641736771117097e-03 -5.5998772111636660e-02 0.0000000000000000e+00  5.7691086544241904e-03 -6.3562227641337038e-02 0.0000000000000000e+00  -6.6340601207771729e-02 9.4643314247264049e-02 0.0000000000000000e+00  -5.7288597704202575e-02 6.4833266050644309e-02 0.0000000000000000e+00  1.1977834513885602e-01 1.5021646110526733e-02 0.0000000000000000e+00  -1.0996396796536043e-01 5.1893772480507194e-02 0.0000000000000000e+00  1.7263426720711086e-02 -5.8785958438409898e-02 0.0000000000000000e+00  4.5131078927116694e-02 1.0979883589344212e-01 0.0000000000000000e+00  -9.2896138669890695e-03 -6.6818215258315550e-02 0.0000000000000000e+00  -4.1269774960282182e-02 -6.5875741948690128e-02 0.0000000000000000e+00  5.5285181434874639e-02 -6.3298619123805688e-02 0.0000000000000000e+00  -7.6327815854154976e-02 -4.7339235727285711e-02 0.0000000000000000e+00  -9.9112543304737302e-02 -5.0709401904034328e-02 0.0000000000000000e+00  1.1691237205865432e-02 -1.1864668764538114e-01 0.0000000000000000e+00  -4.7979431844408622e-02 -1.0926898989481491e-01 0.0000000000000000e+00  6.9062412324672334e-02 -9.7358173846551210e-02 0.0000000000000000e+00  8.3190233441044412e-02 -3.1832607033514544e-02 0.0000000000000000e+00  -8.7956530011973247e-02 9.8335864302830575e-03 0.0000000000000000e+00  -1.1496155098943006e-01 -2.7540235476782207e-02 0.0000000000000000e+00  -9.0942391921732868e-02 -7.2430582114806769e-02 0.0000000000000000e+00  -5.4937839146183354e-03 1.0077630396518425e-01 0.0000000000000000e+00  -5.4362016129533175e-02 4.2239286607446816e-02 0.0000000000000000e+00  -1.9985294204448757e-03 2.5545147759645472e-02 0.0000000000000000e+00  9.4599692997985624e-02 -6.3235018058867679e-02 0.0000000000000000e+00  1.2062669807687280e-01 -1.0901403272309373e-02 0.0000000000000000e+00  5.4550018160117841e-02 5.1789581273812009e-02 0.0000000000000000e+00  2.0571223803517672e-02 -7.8954625196803463e-02 0.0000000000000000e+00  1.1036353228128302e-01 -3.6997085130243676e-02 0.0000000000000000e+00  1.0428334109445949e-03 -8.2858411106228755e-02 0.0000000000000000e+00  4.6242087426588939e-02 6.7195411391880705e-02 0.0000000000000000e+00  -7.7140130675936013e-03 8.2502405943964602e-02 0.0000000000000000e+00  -4.0260351555475922e-02 -7.2277667758317080e-02 0.0000000000000000e+00  -1.1903929878969778e-01 3.8348339139433835e-02 0.0000000000000000e+00  5.5867903477281149e-02 -6.1108778459105950e-02 0.0000000000000000e+00  1.2101132135671107e-02 1.7401937115736052e-02 0.0000000000000000e+00  -5.4883615169630416e-03 1.3442639527231104e-01 0.0000000000000000e+00  -4.4871106672601149e-02 -6.8064649800272131e-02 0.0000000000000000e+00  2.5239931467440094e-02 -6.1036976701490435e-02 0.0000000000000000e+00  -3.2425023167453090e-02 -6.0748475920181219e-02 0.0000000000000000e+00  -8.2114798967150224e-02 -2.5117640772099450e-02 0.0000000000000000e+00  8.0673742051862743e-02 9.3634301740213796e-02 0.0000000000000000e+00  8.4132669662382628e-02 -1.8838168323105453e-03 0.0000000000000000e+00  1.1092982037582254e-01 5.6757719878802029e-02 0.0000000000000000e+00  -9.6357712727531963e-02 7.9468390299082148e-02 0.0000000000000000e+00  -2.5932570858936861e-02 1.2037307673643220e-01 0.0000000000000000e+00  -7.1209288719520881e-03 -3.4004139454734100e-02 0.0000000000000000e+00  2.9340724675651294e-02 -4.7117974018194432e-02 0.0000000000000000e+00  -7.5716285663763580e-02 3.7895934706984429e-02 0.0000000000000000e+00  -1.1834050438431395e-01 -1.6203517547691074e-02 0.0000000000000000e+00  -2.9650255167943504e-03 1.3042986464378514e-01 0.0000000000000000e+00  1.0319170484625022e-01 -5.5379235348057665e-02 0.0000000000000000e+00  1.2421462159054390e-01 9.2374696169379798e-03 0.0000000000000000e+00  -8.1674107426148949e-03 -8.6323010430925662e-02 0.0000000000000000e+00  -8.3948469301237949e-02 -8.7872194077631791e-02 0.0000000000000000e+00  -3.8611027143870463e-02 -7.4224352484148465e-02 0.0000000000000000e+00  -1.3317480634434712e-03 1.6934177986972293e-01 0.0000000000000000e+00  -1.9751637712147652e-02 1.4403876354931400e-01 0.0000000000000000e+00  -2.7623420595638149e-02 1.2839743404635659e-01 0.0000000000000000e+00  -4.9495774295084054e-02 -5.0543523206364398e-02 0.0000000000000000e+00  -3.9619100913569405e-02 -8.0122715776608979e-03 0.0000000000000000e+00  4.6142659074949639e-02 -3.9860025896272782e-03 0.0000000000000000e+00  2.5887617584723407e-02 8.8464155852326185e-02 0.0000000000000000e+00  -9.5083869906483459e-02 -4.7045871987214466e-02 0.0000000000000000e+00  -4.0157769716131046e-02 7.9043803592320119e-02 0.0000000000000000e+00  -5.7177729336831944e-03 -1.1190931892581635e-01 0.0000000000000000e+00  -5.8203475433754481e-02 9.2527236747470043e-02 0.0000000000000000e+00  -1.2369828395849281e-01 2.3525423054453279e-02 0.0000000000000000e+00  2.8425205670291085e-02 1.2512002578714551e-01 0.0000000000000000e+00  1.8781662107703320e-02 1.4229264467593020e-01 0.0000000000000000e+00  1.9810176778931706e-02 7.5474082781167198e-02 0.0000000000000000e+00  4.8953355577742927e-02 6.9366856899801876e-02 0.0000000000000000e+00  -5.4683649756653331e-04 -8.7329100798475390e-02 0.0000000000000000e+00  2.3185170119776007e-02 1.1229147526256293e-01 0.0000000000000000e+00  2.5210816248118925e-02 -7.9998126239061218e-02 0.0000000000000000e+00  -8.4009389258173778e-02 8.3493307945088302e-02 0.0000000000000000e+00  -4.7257956138150571e-02 1.1557048828373231e-01 0.0000000000000000e+00  -5.2863658354442731e-03 9.9770043906941427e-02 0.0000000000000000e+00  4.6983580404932876e-02 8.8368792787962946e-02 0.0000000000000000e+00  1.1706990199297174e-01 3.3389905328487422e-02 0.0000000000000000e+00  5.8473043648820069e-02 8.7174231247972828e-02 0.0000000000000000e+00  9.6242968872704879e-02 -7.8773916851389847e-02 0.0000000000000000e+00  6.4744220734136784e-02 1.0093992181552584e-01 0.0000000000000000e+00  5.5418937826456634e-02 -1.1072885519553251e-01 0.0000000000000000e+00  9.5242014366166416e-02 -3.8723644490553787e-02 0.0000000000000000e+00  -8.2627856451423204e-02 -4.9214096686153876e-02 0.0000000000000000e+00  8.4047399666614439e-02 -9.0527869029337862e-02 0.0000000000000000e+00  2.5374389910961404e-02 -8.0250203531490885e-02 0.0000000000000000e+00  1.1417354697840174e-01 -4.4235515649534964e-02 0.0000000000000000e+00  -7.0095210578737091e-02 3.9449310399490629e-02 0.0000000000000000e+00  -3.2082001228986322e-02 7.0853194907421702e-02 0.0000000000000000e+00  2.9515133054870343e-02 -1.2066443946400765e-01 0.0000000000000000e+00  6.2876615921060211e-02 5.8792048943507383e-02 0.0000000000000000e+00  6.3424567074329516e-02 4.8906635033534360e-02 0.0000000000000000e+00  -1.0140905624140548e-01 3.2254922207873175e-02 0.0000000000000000e+00  9.0839171894327220e-02 8.9944744446657857e-02 0.0000000000000000e+00  -6.8382552435229338e-02 1.0751940700830095e-01 0.0000000000000000e+00  -1.5193341736745814e-02 -1.2474983240691617e-01 0.0000000000000000e+00  1.0527396725840681e-01 -6.8368399320817329e-03 0.0000000000000000e+00  -6.2185390155099184e-02 -7.2163073770703551e-02 0.0000000000000000e+00  4.5760593217576605e-02 -5.6005655700635558e-02 0.0000000000000000e+00  3.9767054960560752e-02 -6.5002195134494747e-02 0.0000000000000000e+00  1.4857834537404448e-02 1.2613597987482419e-01 0.0000000000000000e+00  -5.6525167382058657e-02 5.1409668713058111e-02 0.0000000000000000e+00  5.0362092686928477e-02 -9.3070935604616156e-02 0.0000000000000000e+00  8.6749005491330522e-02 -4.7149902568850245e-02 0.0000000000000000e+00  4.3098228882006963e-02 -5.5358339752240027e-02 0.0000000000000000e+00  3.7678774038356601e-02 -5.1408312329172923e-02 0.0000000000000000e+00  1.5084702667269917e-02 -3.1606093899129654e-02 0.0000000000000000e+00  9.5978526602329958e-02 2.2683670011175317e-02 0.0000000000000000e+00  -5.2581826427528150e-02 -5.1549059629953257e-02 0.0000000000000000e+00  -1.2692383771075746e-01 1.4118760566208598e-02 0.0000000000000000e+00  6.3704237730108429e-02 -7.9542943127841728e-02 0.0000000000000000e+00  1.9875289652437168e-02 -1.0254982186359662e-01 0.0000000000000000e+00  -6.1396247766801207e-02 -1.1053031255602154e-01 0.0000000000000000e+00  -7.5657405724470689e-02 5.9512400061671682e-02 0.0000000000000000e+00  1.1011605257696840e-02 -7.5704233477120741e-02 0.00000000000000