<?xml version="1.0"?>
<VTKFile type="UnstructuredGrid"  version="0.1"  >
<UnstructuredGrid>
<Piece  NumberOfPoints="1312" NumberOfCells="2508">
<Points>
<DataArray  type="Float64"  NumberOfComponents="3"  format="ascii">-1.001931333462056 0.2451043341333431 0  -0.996847875447799 0.1334679645603087 0  -0.9791655674478511 0.02403477326985446 0  -0.9492106152280939 -0.08295499368981575 0  -0.9073673528384483 -0.1859375622160559 0  -0.8534341787699611 -0.2848049824366022 0  -0.7891354412083755 -0.376305996002975 0  -0.7154068435468295 -0.459534027335483 0  -0.6344918261991757 -0.5327765251481915 0  -0.5500462357090438 -0.5942385794677698 0  -0.4628109133977186 -0.6450881147192457 0  -0.3718421820771213 -0.6865302150128867 0  -0.2787451109317419 -0.7185593072689809 0  -0.1832786716928269 -0.7413565974614751 0  -0.08882613008159838 -0.7543030488914277 0  0.001566626909618377 -0.7581714228599915 0  0.09185186348563509 -0.7534223262659224 0  0.1858791105564379 -0.7396425761446379 0  0.2806669583887786 -0.7162603240735508 0  0.3746998043608785 -0.6827920063079133 0  0.4640826716510711 -0.6407752682608056 0  0.5505382594901407 -0.5893387799096906 0  0.6337448078632656 -0.5277008436864367 0  0.7127607850414156 -0.4552177004967943 0  0.7854115754168677 -0.3726213547960776 0  0.8495282657372902 -0.2809083283061798 0  0.9028216164919133 -0.1823907516704783 0  0.944617426953919 -0.0785110193469425 0  0.9742776155959303 0.02886680600389138 0  0.9916072668685019 0.1387478630431807 0  0.9963659165174433 0.2495355014556372 0  0.9883522466892823 0.3600000636907796 0  0.9677621521619817 0.4690055050476388 0  0.9351753312624114 0.5741694024787628 0  0.8910231314152457 0.6750776539535317 0  0.8355177626373438 0.770830447416748 0  0.7699612123395734 0.8592585605245109 0  0.6947955345175379 0.9401710748004014 0  0.6114156307392199 1.012049078617786 0  0.520390558152896 1.074368056843865 0  0.4230598649895431 1.126208177227381 0  0.3208114636316769 1.166922863238091 0  0.2142228436756161 1.196329633472904 0  0.105043013450369 1.213896001947676 0  -0.005257398958233604 1.21968095804256 0  -0.114990704319167 1.213488364080355 0  -0.2240570431110225 1.19511197927264 0  -0.3301671048475341 1.165010191908434 0  -0.4322176762396974 1.123587621308716 0  -0.529523797018331 1.071051158468488 0  -0.6199094586967758 1.008455884202796 0  -0.7029158620588217 0.9364274587555578 0  -0.7778061097478768 0.8552290850737848 0  -0.8432431537098837 0.7658553970600454 0  -0.8979124727025835 0.6706447297929508 0  -0.9417258610286612 0.5695826544562979 0  -0.9739156948958169 0.4643191814469645 0  -0.9941937826132149 0.3556293761078003 0  2.575984748506272 -0.0002752996774003895 0  2.568022206809527 0.2023834848005531 0  2.544313977690063 0.4026976660781333 0  2.504786781642963 0.6013416619610266 0  2.449884103033221 0.7960185595164143 0  2.379812723360379 0.9860027685933639 0  2.295242079403898 1.169450540875157 0  2.196397811862521 1.345956976308209 0  2.084025876814331 1.514132065355496 0  1.958806658468051 1.672973558520074 0  1.821484449260651 1.821523840181167 0  1.673150506998357 1.958644216826867 0  1.513940924896469 2.084154330907195 0  1.34598333165166 2.196382439415892 0  1.169449224096183 2.295245056081043 0  0.9860099467679787 2.379812458824328 0  0.7960253674484542 2.449893499916354 0  0.6013424408577484 2.504790409901548 0  0.4026972737371653 2.544317177000711 0  0.2023853750292568 2.568025736915146 0  -0.0002763171227130439 2.575988250345373 0  -0.2018320392670718 2.568069357011002 0  -0.4029719599173732 2.544257589182323 0  -0.6016225724645592 2.504748411942379 0  -0.7957614996329023 2.449995499868924 0  -0.9857815135227834 2.379880744184405 0  -1.169720938676268 2.295096212704284 0  -1.34571410259628 2.196535139748455 0  -1.514114427646105 2.083998963159261 0  -1.673180264238351 1.958616860039498 0  -1.82130423974768 1.821691289853801 0  -1.958948419106788 1.672792975360352 0  -2.084006796460671 1.514159229856396 0  -2.196416500010638 1.345923539597205 0  -2.295113172976921 1.169686561256717 0  -2.379876691837015 0.9857815476665995 0  -2.44988620820918 0.7960113813249897 0  -2.50486739432947 0.6011250438634724 0  -2.544278484409738 0.402972892820589 0  -2.568028022676895 0.2023388039637458 0  -2.575986064465457 -0.0002362916601407331 0  -2.568055881489342 -0.2020817093873098 0  -2.544280816045257 -0.402978487691304 0  -2.504820094012447 -0.60135394078961 0  -2.449917449824203 -0.796026712697637 0  -2.37990944796308 -0.9857905993326469 0  -2.29523013193412 -1.16947772447462 0  -2.196397194296507 -1.345955009618243 0  -2.084026995056857 -1.514130191479875 0  -1.958783002499266 -1.672996905425573 0  -1.821665504265312 -1.821332104322274 0  -1.672761778813622 -1.958971742012228 0  -1.514349593997958 -2.083855088012762 0  -1.345938116486308 -2.196369867760502 0  -1.169225734022941 -2.295347121374063 0  -0.9860430261119345 -2.379795688129599 0  -0.7957607169457437 -2.449995372794197 0  -0.6016210152920615 -2.504743483328512 0  -0.4029720799824139 -2.544248340000444 0  -0.202102537191348 -2.56803074990957 0  0.0002384692718749785 -2.575987991027407 0  0.2020805024725069 -2.568057714909167 0  0.4029742561534372 -2.544284178223833 0  0.6013835628639972 -2.504813474426217 0  0.7958009653134916 -2.449983469443942 0  0.9860009177476952 -2.379815644952495 0  1.169476961778499 -2.295228461174737 0  1.34575454026836 -2.196511690526984 0  1.514317330244589 -2.083883346628467 0  1.672951098640444 -1.958823739493496 0  1.821527685572705 -1.821480403109827 0  1.958641183660451 -1.673152298345777 0  2.083996029642606 -1.514112759475388 0  2.196514680575298 -1.345746262034924 0  2.295212953834736 -1.169506770072998 0  2.379921922733125 -0.9857609843902181 0  2.449835533353037 -0.7962490937208209 0  2.50478479299017 -0.6013490953437188 0  2.544246411297312 -0.4029651052741988 0  2.568065513539121 -0.2018319785696405 0  -0.003481403090496654 0.2366347132371882 0  -0.1019860873214809 -1.663223392173863 0  0.8166298048596186 -1.473666794479209 0  -1.043612882023208 -1.336135327879517 0  1.452872798782484 -0.9162107449007024 0  -1.6315794951996 -0.6115643634282784 0  1.756312261771195 -0.1816995465065488 0  -1.784207300884225 0.1938215688443739 0  1.719321272258603 0.5854624988183161 0  -1.58713488648962 0.9309954665672309 0  1.398336603623805 1.222877096643165 0  -1.114061946695509 1.507599416793596 0  0.7916633389402901 1.713928417905364 0  -0.4606856338890457 1.836679091779598 0  0.1723449614405187 1.842843283599062 0  -0.6932165179883349 -1.835516533943534 0  0.3892407982578327 -1.965937000087049 0  1.376276238442316 -1.492173822329108 0  -1.606905631724684 -1.183895379591237 0  0.4992574576440109 0.2769056734779061 0  -0.5068006353827262 0.2192552527793122 0  -0.5002562637363388 -1.322820317508232 0  0.2643332256103812 -0.1712304161255698 0  -0.2227032807096632 -0.1992707163240893 0  -0.261842879754239 0.658083054815741 0  1.937274308574444 -0.7185777018304405 0  0.288859196425625 -1.287216924454273 0  -2.047658512016635 -0.2488455075528256 0  -1.125560391419397 -0.8143557767035265 0  2.064937302474491 0.2244079653493355 0  0.9246353235777945 -0.9734203127823661 0  -0.2491332405692353 -2.110151809705219 0  0.8503957000275576 -1.938329953944946 0  -1.148958243685598 -1.784524889740261 0  1.831717349794932 1.048062897357391 0  -2.052829542161264 0.5707133209174181 0  1.323592754348021 -0.4446486238364964 0  -1.572488656021841 1.407098017544813 0  -1.437138939666225 -0.1677587786591891 0  0.229723411179666 0.6868378460096047 0  1.738625310456716 -1.251220220685065 0  -1.946278968844077 -0.9153441688674563 0  1.263737882794581 1.682169640006814 0  -0.9103919153601825 1.921791746496344 0  1.463851749796127 0.1796474343149874 0  -0.1011893851616006 -1.239786909373307 0  -0.7360963445774762 -0.9884435666817795 0  -0.085493999317535 2.171896803255007 0  -1.436717812483266 0.4886056471307354 0  2.134732112438148 -0.3580665171068093 0  0.5421740261327261 2.075287976172107 0  1.326797122225176 0.7804594514356248 0  -1.153205249855463 1.070318622734699 0  0.9611373977463893 1.297430696213284 0  -2.179351703166867 0.125019894974404 0  -0.6782913777169767 1.468045588778518 0  -1.395836348549428 -1.497441280606492 0  2.071972992723937 0.7529574026633941 0  -1.975813376160763 0.9504427805631306 0  -1.275892611151344 -0.4911738948157134 0  1.638110465427465 1.505576204180243 0  0.5457873003406134 -1.035213082268116 0  0.4343998307295173 1.543789910382411 0  -1.402403090336735 1.726398266941891 0  -0.1419664223030145 1.603803220243676 0  1.218974875542168 -1.838676983048939 0  -0.6361673719018285 2.141889416556456 0  1.045399354368512 1.964479289076905 0  -1.978794437067197 -0.5794779648688643 0  1.220459560222326 -1.175032794560983 0  -0.6102851349723305 -2.16676292673121 0  0.2410078949725379 -1.63780005050589 0  1.022671311027373 -0.6423078374886482 0  -1.44639454863763 0.1588710161584536 0  -0.9513113263160118 -2.048710199918017 0  0.05500488220863267 -1.966635144375314 0  0.6003477056739891 -1.71570852068892 0  0.5868693682625783 -0.06111121456999639 0  1.668621906983762 -0.5050028675955998 0  -0.5544746567615948 -0.1257710854954861 0  0.02847010654536584 -0.4065797687227898 0  -1.294179096263405 0.7777192460252524 0  1.424471321232629 -0.1401182994667632 0  -0.5871540104708192 0.5469047610033285 0  1.138159389737087 1.033399273765053 0  -0.3286803540223469 -1.04425679043399 0  0.2453535080656803 2.23655664503352 0  0.6358273127174573 -2.174573836765412 0  0.2248862700929273 -2.246506972372317 0  -0.02921769409061279 0.894783124999774 0  1.299986137424291 0.4536292679474669 0  0.5505661672602232 0.6304525315330816 0  -0.9143933570582077 1.266222980914496 0  -0.8925835286194663 -1.602179046116405 0  -0.3780745410818564 -1.819089594017128 0  -1.748553491595711 0.4973118800067904 0  -1.775617971851669 1.179441197241511 0  -1.916652020894708 -1.220388824318269 0  1.679765369450757 -1.551018798406907 0  -1.711965295828895 -1.48120924437656 0  -1.726859878507046 -0.311592415571551
[...]
<PointData  Vectors="f_4145-0"> 
<DataArray  type="Float64"  Name="f_4145-0"  NumberOfComponents="3" format="ascii">7.8197676034636315e-03 -7.8016694219222693e-02 0.0000000000000000e+00  2.4242808507822879e-02 -9.0163222845920973e-02 0.0000000000000000e+00  4.2793277264150671e-02 -9.7945742175189213e-02 0.0000000000000000e+00  6.3520959332400609e-02 -1.0462139483220956e-01 0.0000000000000000e+00  8.5851348568355662e-02 -1.0840193472772816e-01 0.0000000000000000e+00  1.1178324212788479e-01 -1.1202251812365609e-01 0.0000000000000000e+00  1.3733931337485891e-01 -1.0918020068558254e-01 0.0000000000000000e+00  1.6074858285899532e-01 -1.0044206731436191e-01 0.0000000000000000e+00  1.7657548319059579e-01 -8.3234458425684374e-02 0.0000000000000000e+00  1.7596338313308632e-01 -5.6546047351051648e-02 0.0000000000000000e+00  1.6431698467391243e-01 -2.8251746973663006e-02 0.0000000000000000e+00  1.4693345789200732e-01 -2.8503203468463710e-03 0.0000000000000000e+00  1.2313080230208807e-01 1.8890595835174984e-02 0.0000000000000000e+00  9.5240391083651801e-02 3.6225778520600389e-02 0.0000000000000000e+00  5.7188283853627959e-02 4.8486905833596265e-02 0.0000000000000000e+00  4.0955309140691320e-03 5.3257308401553183e-02 0.0000000000000000e+00  -4.9184374813384814e-02 4.8715515031319524e-02 0.0000000000000000e+00  -8.8201654894846826e-02 3.7202386768437332e-02 0.0000000000000000e+00  -1.1762062604129300e-01 2.0098881504163179e-02 0.0000000000000000e+00  -1.3929397617333353e-01 -5.9806610394052770e-04 0.0000000000000000e+00  -1.5817969184086203e-01 -2.5399445367137681e-02 0.0000000000000000e+00  -1.7097120180653111e-01 -5.3097076257741710e-02 0.0000000000000000e+00  -1.7364098958482560e-01 -8.0042999831472131e-02 0.0000000000000000e+00  -1.6373544789037842e-01 -1.0142156979493082e-01 0.0000000000000000e+00  -1.4304870338756281e-01 -1.1357190280830215e-01 0.0000000000000000e+00  -1.1661233776175578e-01 -1.1682389042503477e-01 0.0000000000000000e+00  -9.1304575843707741e-02 -1.1552691472792624e-01 0.0000000000000000e+00  -6.7395000707323086e-02 -1.1001703290440527e-01 0.0000000000000000e+00  -4.5791409493045949e-02 -1.0284313259545264e-01 0.0000000000000000e+00  -2.6705027133749393e-02 -9.3884289308707500e-02 0.0000000000000000e+00  -1.0110850569093693e-02 -8.3737454808333472e-02 0.0000000000000000e+00  4.1042833502766248e-03 -7.2520615045913797e-02 0.0000000000000000e+00  1.5482005686882292e-02 -5.9362209441242382e-02 0.0000000000000000e+00  2.4811234020837753e-02 -4.8289789702525357e-02 0.0000000000000000e+00  3.1935485398926322e-02 -3.6477368631614028e-02 0.0000000000000000e+00  3.5946224599829053e-02 -2.3008856382299572e-02 0.0000000000000000e+00  3.8746373740835394e-02 -1.1643439662304342e-02 0.0000000000000000e+00  3.8731112460040081e-02 2.6429097880871331e-04 0.0000000000000000e+00  3.7570078436068362e-02 1.0505226442445404e-02 0.0000000000000000e+00  3.4109768356651748e-02 2.0108148977387618e-02 0.0000000000000000e+00  2.9242817461826318e-02 2.8174254488398078e-02 0.0000000000000000e+00  2.3859897866560360e-02 3.4394854592299240e-02 0.0000000000000000e+00  1.6085411634040290e-02 3.9362836569065342e-02 0.0000000000000000e+00  7.7150293018655247e-03 4.2402217257556600e-02 0.0000000000000000e+00  -7.6503667141052394e-04 4.3562675123723624e-02 0.0000000000000000e+00  -7.5518961257010015e-03 4.2969852289205447e-02 0.0000000000000000e+00  -1.6239956645341468e-02 4.0249676448538330e-02 0.0000000000000000e+00  -2.3345572519831208e-02 3.5824047074136736e-02 0.0000000000000000e+00  -2.9257813333576067e-02 2.9823374135625486e-02 0.0000000000000000e+00  -3.5175429985530277e-02 2.1510010784240672e-02 0.0000000000000000e+00  -3.7916542372185481e-02 1.2757895025216962e-02 0.0000000000000000e+00  -3.8890807540555038e-02 3.1988321642112513e-03 0.0000000000000000e+00  -3.9057148952588737e-02 -8.2978622057386636e-03 0.0000000000000000e+00  -3.7766510007318205e-02 -2.1566825830945564e-02 0.0000000000000000e+00  -3.2522263238410745e-02 -3.2359700637970605e-02 0.0000000000000000e+00  -2.5829346130955423e-02 -4.4336435010506242e-02 0.0000000000000000e+00  -1.6867779183250796e-02 -5.5557471366431174e-02 0.0000000000000000e+00  -5.7884799460751228e-03 -6.7286297284627775e-02 0.0000000000000000e+00  1.4100585642602526e-01 -1.1377759546060801e-03 0.0000000000000000e+00  1.4048171922120736e-01 1.2195852675860930e-02 0.0000000000000000e+00  1.3945108332426406e-01 2.0921212923842813e-02 0.0000000000000000e+00  1.3701966831664283e-01 3.2874179267311232e-02 0.0000000000000000e+00  1.3401354600355614e-01 4.3559902132308322e-02 0.0000000000000000e+00  1.2991267915093813e-01 5.4855649807572793e-02 0.0000000000000000e+00  1.2572940657052276e-01 6.3924207871926278e-02 0.0000000000000000e+00  1.2026635089688134e-01 7.3709398480066898e-02 0.0000000000000000e+00  1.1411767767867018e-01 8.2905920765638838e-02 0.0000000000000000e+00  1.0727114041714485e-01 9.1597285716703072e-02 0.0000000000000000e+00  9.9656634281407391e-02 9.9817735478405209e-02 0.0000000000000000e+00  9.2329630570523000e-02 1.0660087441630056e-01 0.0000000000000000e+00  8.2116085181557219e-02 1.1465030542179250e-01 0.0000000000000000e+00  7.3816869552697353e-02 1.2020292441720165e-01 0.0000000000000000e+00  6.3919423617823143e-02 1.2574087549312643e-01 0.0000000000000000e+00  5.4884083791532777e-02 1.2991136747555451e-01 0.0000000000000000e+00  4.3584105794860960e-02 1.3405115794983269e-01 0.0000000000000000e+00  3.2880806712644872e-02 1.3703295678529820e-01 0.0000000000000000e+00  2.0918747036189289e-02 1.3946364127823363e-01 0.0000000000000000e+00  1.2203755831092514e-02 1.4049535443433037e-01 0.0000000000000000e+00  -1.1420879853507361e-03 1.4101936843958582e-01 0.0000000000000000e+00  -9.9164219470003097e-03 1.4067570271317983e-01 0.0000000000000000e+00  -2.2057544585827395e-02 1.3922061897976568e-01 0.0000000000000000e+00  -3.4035422625455183e-02 1.3685426081936866e-01 0.0000000000000000e+00  -4.2491689055381379e-02 1.3446914355980832e-01 0.0000000000000000e+00  -5.3939273564134894e-02 1.3019913621925358e-01 0.0000000000000000e+00  -6.5042327917483267e-02 1.2512742878245375e-01 0.0000000000000000e+00  -7.2706075347178462e-02 1.2083485070196767e-01 0.0000000000000000e+00  -8.2836886613226635e-02 1.1401127337888468e-01 0.0000000000000000e+00  -9.2451933331161626e-02 1.0648801565480852e-01 0.0000000000000000e+00  -9.8912180276039471e-02 1.0051152894426706e-01 0.0000000000000000e+00  -1.0785942027895150e-01 9.0850656120288281e-02 0.0000000000000000e+00  -1.1403978325008987e-01 8.3016101468398634e-02 0.0000000000000000e+00  -1.2034195279939049e-01 7.3573679772776526e-02 0.0000000000000000e+00  -1.2519804694229306e-01 6.4900874142458917e-02 0.0000000000000000e+00  -1.3018234004602630e-01 5.3941786909588611e-02 0.0000000000000000e+00  -1.3402340736185081e-01 4.3526048896588489e-02 0.0000000000000000e+00  -1.3734740778522567e-01 3.1977797793151422e-02 0.0000000000000000e+00  -1.3930269213674965e-01 2.2058468603356186e-02 0.0000000000000000e+00  -1.4050573424965865e-01 1.2013595733364565e-02 0.0000000000000000e+00  -1.4101165298478205e-01 -9.7714782254959337e-04 0.0000000000000000e+00  -1.4061933447547700e-01 -1.0949379426894430e-02 0.0000000000000000e+00  -1.3931289069556047e-01 -2.2080658248465931e-02 0.0000000000000000e+00  -1.3715000448381112e-01 -3.2926317385070937e-02 0.0000000000000000e+00  -1.3414618591140931e-01 -4.3587705680692340e-02 0.0000000000000000e+00  -1.3031215054723824e-01 -5.3976058523825983e-02 0.0000000000000000e+00  -1.2568094521449960e-01 -6.4035753417898758e-02 0.0000000000000000e+00  -1.2026389977205557e-01 -7.3702100444175786e-02 0.0000000000000000e+00  -1.1412207142666964e-01 -8.2899027012490967e-02 0.0000000000000000e+00  -1.0717513979728263e-01 -9.1692187045906551e-02 0.0000000000000000e+00  -1.0040634994641140e-01 -9.9026621575420165e-02 0.0000000000000000e+00  -9.0722184788034760e-02 -1.0795547525449958e-01 0.0000000000000000e+00  -8.3806607185188134e-02 -1.1341236504641240e-01 0.0000000000000000e+00  -7.3634532941747169e-02 -1.2015659094064426e-01 0.0000000000000000e+00  -6.2994814713402569e-02 -1.2616520478134516e-01 0.0000000000000000e+00  -5.5019421453358676e-02 -1.2984245617449075e-01 0.0000000000000000e+00  -4.2487418983309301e-02 -1.3446889572832127e-01 0.0000000000000000e+00  -3.4030523239223877e-02 -1.3683449852941021e-01 0.0000000000000000e+00  -2.2056669324012998e-02 -1.3918445344680619e-01 0.0000000000000000e+00  -1.1033343947442710e-02 -1.4052033877207379e-01 0.0000000000000000e+00  9.8681327717625939e-04 -1.4101879016872676e-01 0.0000000000000000e+00  1.0944153684134426e-02 -1.4062608756971545e-01 0.0000000000000000e+00  2.2064134046087248e-02 -1.3932570671435524e-01 0.0000000000000000e+00  3.3047254960743198e-02 -1.3712199841004447e-01 0.0000000000000000e+00  4.2653762369749784e-02 -1.3442015325685946e-01 0.0000000000000000e+00  5.4847868440682380e-02 -1.2992417146707502e-01 0.0000000000000000e+00  6.4032119680349081e-02 -1.2567334638290281e-01 0.0000000000000000e+00  7.2873432461283943e-02 -1.2073829341060938e-01 0.0000000000000000e+00  8.3671802372361340e-02 -1.1353005881581249e-01 0.0000000000000000e+00  9.1506030941186797e-02 -1.0734052317986721e-01 0.0000000000000000e+00  9.9832971514783819e-02 -9.9640912906186943e-02 0.0000000000000000e+00  1.0658827435577996e-01 -9.2338029513234485e-02 0.0000000000000000e+00  1.1400119122296591e-01 -8.2828990383045559e-02 0.0000000000000000e+00  1.2075140062150588e-01 -7.2839249978002674e-02 0.0000000000000000e+00  1.2561087080360914e-01 -6.4153934426595421e-02 0.0000000000000000e+00  1.3036242656028568e-01 -5.3855730245940196e-02 0.0000000000000000e+00  1.3380897774988074e-01 -4.4508142451791376e-02 0.0000000000000000e+00  1.3701019253150534e-01 -3.2911418377400248e-02 0.0000000000000000e+00  1.3917821169536118e-01 -2.2023999790568662e-02 0.0000000000000000e+00  1.4066085225501251e-01 -9.9161928393207144e-03 0.0000000000000000e+00  -3.4269162333518356e-03 6.8975764014273272e-02 0.0000000000000000e+00  2.8680003260890779e-03 -4.4103541710615084e-02 0.0000000000000000e+00  2.8096234418086225e-03 -6.8279779217320355e-02 0.0000000000000000e+00  -1.4406491482310810e-02 -6.8412625465363072e-02 0.0000000000000000e+00  3.4508866421061664e-02 -5.6525226320689397e-02 0.0000000000000000e+00  -4.0588526832760895e-02 -5.2700145342853139e-02 0.0000000000000000e+00  5.4011996404539464e-02 -4.5920174217184639e-02 0.0000000000000000e+00  -6.9781853312192887e-02 -3.8827705034286189e-02 0.0000000000000000e+00  8.1472938349005625e-02 -2.1307897085318966e-02 0.0000000000000000e+00  -9.0077216431471763e-02 -2.9910352391641573e-04 0.0000000000000000e+00  8.9620955526931959e-02 2.2267660663558567e-02 0.0000000000000000e+00  -8.0124915955448989e-02 5.0923950195781782e-02 0.0000000000000000e+00  6.2473095032585683e-02 7.2043071250312715e-02 0.0000000000000000e+00  -3.6194732860255673e-02 8.8220148085047564e-02 0.0000000000000000e+00  1.5487284694046356e-02 8.9735426547703140e-02 0.0000000000000000e+00  -2.3088435333822592e-02 -9.3014321275845593e-02 0.0000000000000000e+00  1.1842026319583761e-02 -9.8189940842945481e-02 0.0000000000000000e+00  6.5047231651395102e-02 -8.4326986439913335e-02 0.0000000000000000e+00  -7.2826883259485789e-02 -6.8518903902267531e-02 0.0000000000000000e+00  1.0836802403450613e-02 2.0707579219445542e-02 0.0000000000000000e+00  -1.0056597691924692e-02 1.7943491835354618e-02 0.0000000000000000e+00  3.9882088821573437e-02 -3.8271336934005133e-02 0.0000000000000000e+00  -5.8247982763758643e-02 7.7258083114876974e-02 0.0000000000000000e+00  5.2244779146000044e-02 8.1129667122603125e-02 0.0000000000000000e+00  -1.8283516409017483e-02 5.1880336137945578e-02 0.0000000000000000e+00  9.4415278639214451e-02 -4.9834938789893223e-02 0.0000000000000000e+00  -4.2073859051943538e-02 -8.4299044798699218e-03 0.0000000000000000e+00  -1.0050058979853581e-01 -3.6996454270362439e-02 0.0000000000000000e+00  3.3194134706759922e-02 -5.7563491195430971e-02 0.0000000000000000e+00  1.0875230383396386e-01 -1.7014186466164566e-02 0.0000000000000000e+00  -3.9201539294823333e-02 -6.3225527821855573e-02 0.0000000000000000e+00  -1.0850948197366152e-02 -1.1298954204041146e-01 0.0000000000000000e+00  3.8744632845495036e-02 -1.0826801603187443e-01 0.0000000000000000e+00  -5.7210064111622730e-02 -1.0096439571517551e-01 0.0000000000000000e+00  1.1355071292945612e-01 2.7563772715537522e-02 0.0000000000000000e+00  -1.1782938135674116e-01 1.1340097567651064e-03 0.0000000000000000e+00  -2.7933550387340977e-02 -6.2274249727588396e-02 0.0000000000000000e+00  -1.0569536487790818e-01 5.2809144263605209e-02 0.0000000000000000e+00  5.8172133965703693e-03 -6.5614612611920822e-02 0.0000000000000000e+00  1.3730197513686829e-02 5.3696423100095009e-02 0.0000000000000000e+00  9.2080306604417753e-02 -7.2617435936944724e-02 0.0000000000000000e+00  -1.0112533999432766e-01 -5.8252515359938861e-02 0.0000000000000000e+00  9.0653567444629823e-02 7.4549784165598265e-02 0.0000000000000000e+00  -6.7527750273773529e-02 9.8575857780021744e-02 0.0000000000000000e+00  1.8148365217605829e-02 -6.1611209727163822e-02 0.0000000000000000e+00  2.4605377928670135e-02 1.6424927856255836e-02 0.0000000000000000e+00  6.8380054639077176e-02 -6.1869999771841662e-02 0.0000000000000000e+00  -5.6349941839166640e-03 1.2295340581156020e-01 0.0000000000000000e+00  -4.3052659535942978e-02 -4.7941904815412294e-02 0.0000000000000000e+00  1.1270503432613102e-01 -3.4963818075551149e-02 0.0000000000000000e+00  4.2781005325756780e-02 1.1311852638930543e-01 0.0000000000000000e+00  5.6428421947341774e-02 -3.0993228580943812e-02 0.0000000000000000e+00  -6.6396278252557145e-02 -2.3310074382983503e-03 0.0000000000000000e+00  6.5132318722425253e-02 2.1080383059592624e-02 0.0000000000000000e+00  -1.2029416580657000e-01 -1.6497418389483653e-02 0.0000000000000000e+00  -5.1135513515562003e-02 4.5675065265757056e-02 0.0000000000000000e+00  -6.6819131532961443e-02 -8.4354615138089464e-02 0.0000000000000000e+00  1.2337120671063598e-01 1.7458230580296663e-02 0.0000000000000000e+00  -1.2149183688194896e-01 2.7135946842759179e-02 0.0000000000000000e+00  3.6575326442331378e-02 -6.3594102690648482e-02 0.0000000000000000e+00  1.0897183181999719e-01 6.6563250673262880e-02 0.0000000000000000e+00  -7.9515941110971711e-02 -5.2432371923832807e-02 0.0000000000000000e+00  3.6233108717102461e-02 5.5308640281485598e-02 0.0000000000000000e+00  -9.6681835630293866e-02 8.3853773285679417e-02 0.0000000000000000e+00  -1.0549577988127726e-02 6.4181851139362159e-02 0.0000000000000000e+00  6.4679562337357485e-02 -1.0644135828838155e-01 0.0000000000000000e+00  -4.5995974080018445e-02 1.1976543513786823e-01 0.0000000000000000e+00  7.5666188477453697e-02 1.0294798793022729e-01 0.0000000000000000e+00  -9.5087320875648418e-02 -4.7335520617710895e-02 0.0000000000000000e+00  2.4084770729533148e-02 -6.5332025800427504e-02 0.0000000000000000e+00  -3.1316716349690341e-02 -1.2334551442147494e-01 0.0000000000000000e+00  -7.0787575369375610e-03 -4.5020256481476277e-02 0.0000000000000000e+00  -7.5638297052638442e-02 -6.6895600049275250e-02 0.0000000000000000e+00  -1.6361794176754048e-02 -6.3970343907756536e-02 0.0000000000000000e+00  -5.0820637918039417e-02 -1.1796946387327946e-01 0.0000000000000000e+00  8.3715261671746656e-04 -9.2249387003393427e-02 0.0000000000000000e+00  7.8816096678852848e-03 -7.6457846043413963e-02 0.0000000000000000e+00  -3.4279380868321108e-02 -1.6678285894915084e-02 0.0000000000000000e+00  4.3576329861909423e-02 -4.9763533076966279e-02 0.0000000000000000e+00  4.2432879773045301e-02 -9.6360832761776694e-03 0.0000000000000000e+00  -2.1966419237358124e-02 9.5192366247100063e-02 0.0000000000000000e+00  -5.4651987845155924e-02 -3.0765603570928925e-02 0.0000000000000000e+00  -7.5754408003446856e-03 -6.6245419044829237e-02 0.0000000000000000e+00  -2.9550355229682405e-02 1.1028126424217220e-02 0.0000000000000000e+00  6.2528519380749714e-02 -9.1314920048661610e-03 0.0000000000000000e+00  8.5788059850809589e-02 -2.3972600991260393e-02 0.0000000000000000e+00  1.9051588298144170e-02 1.2798565049425559e-01 0.0000000000000000e+00  3.2078353792232936e-02 -1.2446240882176250e-01 0.0000000000000000e+00  1.0559198596552339e-02 -1.2679920552850960e-01 0.0000000000000000e+00  -2.4992685527106665e-03 5.4756958037842023e-02 0.0000000000000000e+00  2.4823741647999015e-02 -6.0890303911743229e-02 0.0000000000000000e+00  2.8673553528984774e-02 1.5826290632082695e-02 0.0000000000000000e+00  -6.0940381336190910e-02 1.9485322474136223e-02 0.0000000000000000e+00  -2.2107846082926336e-02 -7.9482564018776070e-02 0.0000000000000000e+00  -5.8291054164013442e-03 -7.8258688356445880e-02 0.0000000000000000e+00  -8.0992959176190066e-02 -2.5954236552134059e-02 0.0000000000000000e+00  -1.1361787608853090e-01 3.7506675471072171e-02 0.0000000000000000e+00  -1.0693234313829547e-01 -7.1864743956577729e-02 0.0000000000000000e+00  9.5183626048713305e-02 -8.9705341126090576e-02 0.0000000000000000e+00  -9.5914408939195492e-02 -8.5749787561098439e-02 0.0000000000000000e+00  -4.8623132940824217e-02 -5.0049685679782525e-02 0.0000000000000000e+00  -2.3760534348819601e-02 -6.2130574732068594e-02 0.0000000000000000e+00  -2.4539118643675160e-02 -5.5758280151741606e-02 0.0000000000000000e+00  1.2533466628906922e-01 -1.8626647679898457e-02 0.0000000000000000e+00  6.3297723453889676e-02 -4.0368531612297663e-02 0.0000000000000000e+00  4.7625641500789406e-02 2.9247759264878954e-02 0.0000000000000000e+00  -1.2565814541329082e-01 -3.6030345489540525e-02 0.0000000000000000e+00  1.1033058302762026e-01 -6.2276655723550511e-02 0.0000000000000000e+00  1.1408254647461483e-02 5.6893646642384457e-02 0.0000000000000000e+00  1.3151707073432661e-01 8.0322053474167592e-03 0.0000000000000000e+00  -1.3386417406004322e-02 9.4997433084387781e-02 0.0000000000000000e+00  -3.7366115841261767e-02 2.8842718416981477e-02 0.0000000000000000e+00  8.8460946584830433e-02 1.7633432118329593e-03 0.0000000000000000e+00  9.8139538033509693e-02 -7.5249273322965798e-02 0.0000000000000000e+00  2.9388956463848603e-02 -7.5599255591817308e-02 0.0000000000000000e+00  -3.6997962646283217e-02 -4.4925476337856880e-02 0.0000000000000000e+00  -8.1124094526890497e-02 -1.0332952180909424e-01 0.0000000000000000e+00  -3.2272560004459862e-02 5.8257382884794325e-02 0.0000000000000000e+00  -2.6799885974149562e-02 1.1692464069858156e-01 0.0000000000000000e+00  7.6107405076335177e-02 -5.6990700487115818e-02 0.0000000000000000e+00  1.2412589312111620e-01 -4.2304979197225666e-02 0.0000000000000000e+00  8.3749672925240964e-02 -1.0163419276966669e-01 0.0000000000000000e+00  5.8580771469509449e-02 1.1929599111339209e-01 0.0000000000000000e+00  1.9402077608391313e-02 -6.0661700703141662e-02 0.0000000000000000e+00  2.2502494679245387e-02 -2.2318958439439259e-02 0.0000000000000000e+00  2.9660798025476945e-03 -6.2768271819722637e-02 0.0000000000000000e+00  2.6449416057403270e-02 -5.7982709112098893e-02 0.0000000000000000e+00  4.4434112771991996e-02 8.3099426150894148e-02 0.0000000000000000e+00  3.6772840246858611e-02 -9.1239055282374498e-02 0.0000000000000000e+00  -8.7428915207644231e-02 3.0413070267230436e-02 0.0000000000000000e+00  -8.2804765991445151e-02 8.4773361175422834e-02 0.0000000000000000e+00  -5.1557216803695674e-03 -1.3271234744563015e-01 0.0000000000000000e+00  -1.0384637342784579e-01 -7.3795670458875626e-02 0.0000000000000000e+00  1.0684751718956265e-01 -8.4594636577659948e-03 0.0000000000000000e+00  -8.1764493911873643e-03 -3.4194146221025283e-03 0.0000000000000000e+00  1.1855640109022517e-01 5.8750958055657332e-02 0.0000000000000000e+00  -1.3167194224651690e-01 4.0056810831462881e-03 0.0000000000000000e+00  -1.0553313904724708e-02 8.3325620309293566e-02 0.0000000000000000e+00  -1.1650321280850554e-01 6.7820487370748694e-02 0.0000000000000000e+00  -1.3722638457671322e-02 -5.7440536038180237e-02 0.0000000000000000e+00  -2.6390801247236195e-02 -6.1562700817006301e-02 0.0000000000000000e+00  3.1251838126041470e-04 -4.3040452127445394e-02 0