<?xml version="1.0"?>
<VTKFile type="UnstructuredGrid"  version="0.1"  >
<UnstructuredGrid>
<Piece  NumberOfPoints="737" NumberOfCells="1356">
<Points>
<DataArray  type="Float64"  NumberOfComponents="3"  format="ascii">-0.9237543792223064 0.0002698495931647005 0  -0.9284448127952918 -0.1004170204272605 0  -0.9223052387463783 -0.2008956672360847 0  -0.9053770953849831 -0.2999483691311519 0  -0.8778150444572353 -0.3965342682682197 0  -0.840029396376922 -0.4894363229634199 0  -0.7925242489888635 -0.577593198203312 0  -0.7360140763311495 -0.6599985232865224 0  -0.6710311907327386 -0.7358231243327346 0  -0.5982823034771941 -0.8042078395917797 0  -0.5188377843368931 -0.8644984583929741 0  -0.4332878907540819 -0.9157619847847749 0  -0.3427330338571153 -0.9575351294432756 0  -0.248358000034628 -0.9894762522251037 0  -0.1510483865266183 -1.011072397821976 0  -0.05194379984373608 -1.022088946101981 0  0.0476962996821426 -1.02273808800534 0  0.1468114112611718 -1.01210726399538 0  0.2442753118656381 -0.9909216230315546 0  0.3388517762194994 -0.9594107331582045 0  0.4294264090033054 -0.917887288682301 0  0.5152302682211537 -0.8669945152062289 0  0.5951505243797429 -0.8072286684111916 0  0.6680624407091896 -0.7391304125933719 0  0.7334364644296223 -0.6636434193299836 0  0.7903802070016288 -0.5813729048684896 0  0.8383210812084972 -0.4934337617589281 0  0.8764783823474012 -0.4007685503855174 0  0.9044897271845324 -0.3043512459058162 0  0.9217835760981968 -0.2052828496321037 0  0.9284426452601698 -0.1048162062853951 0  0.9241678039734295 -0.004175180614173653 0  0.9089979308161408 0.09549223775593356 0  0.8831186144915169 0.1930069179165016 0  0.8467415773467077 0.2871742930105888 0  0.8003289410684912 0.3769651435664282 0  0.7443805628041223 0.4611077959028408 0  0.6795483796137185 0.538751172208028 0  0.6066378496824568 0.6089672257822378 0  0.5264884111974922 0.6707505902628721 0  0.4400642303551786 0.7235457236322069 0  0.3483953212038584 0.7667031564120774 0  0.2525650346179439 0.7996938967050293 0  0.1536967685504963 0.822045648332787 0  0.05294870052844736 0.8336669540007577 0  -0.04845682116298686 0.8335950691459215 0  -0.1492617082554235 0.8226010639730927 0  -0.2482204810639413 0.800727757927953 0  -0.3441852692602284 0.7682475388631105 0  -0.4360414349033274 0.7255473047407314 0  -0.5226797794031252 0.6731911251978051 0  -0.6030992711844242 0.6117123243374394 0  -0.6763032146802994 0.5418967373270843 0  -0.741479267876342 0.4645706022825629 0  -0.7979198398748717 0.3807371858071983 0  -0.8448436571456541 0.2912566759334825 0  -0.8816264880705859 0.1972337426243161 0  -0.9080440127840366 0.09981559169619478 0  1.86017084295294 0 0  1.849266441771339 0.2011198456409083 0  1.816681082360401 0.3998817449773053 0  1.762796798266141 0.5939553964692097 0  1.688245333452693 0.7810654639961102 0  1.593900735681941 0.9590182530926203 0  1.480869109102658 1.125727430010371 0  1.350475646190685 1.279238482073654 0  1.204249091078785 1.417751632553521 0  1.04390381642943 1.539642941404378 0  0.8713197239828011 1.643483344476234 0  0.6885202044276952 1.728055407985258 0  0.4976484149957002 1.792367601811782 0  0.3009421529021659 1.83566592428439 0  0.1007076192198885 1.857442742160122 0  -0.1007076192198878 1.857442742160123 0  -0.3009421529021661 1.83566592428439 0  -0.4976484149957004 1.792367601811782 0  -0.6885202044276947 1.728055407985259 0  -0.8713197239828009 1.643483344476234 0  -1.043903816429429 1.539642941404378 0  -1.204249091078785 1.417751632553521 0  -1.350475646190685 1.279238482073654 0  -1.480869109102658 1.125727430010371 0  -1.593900735681941 0.9590182530926202 0  -1.688245333452693 0.7810654639961099 0  -1.762796798266141 0.5939553964692093 0  -1.816681082360401 0.3998817449773057 0  -1.849266441771339 0.2011198456409085 0  -1.86017084295294 2.278052268689552e-16 0  -1.84926644177134 -0.2011198456409073 0  -1.816681082360401 -0.3998817449773052 0  -1.762796798266141 -0.5939553964692096 0  -1.688245333452693 -0.7810654639961102 0  -1.593900735681941 -0.9590182530926206 0  -1.480869109102658 -1.12572743001037 0  -1.350475646190685 -1.279238482073653 0  -1.204249091078784 -1.417751632553521 0  -1.04390381642943 -1.539642941404378 0  -0.871319723982802 -1.643483344476234 0  -0.6885202044276951 -1.728055407985258 0  -0.4976484149957012 -1.792367601811782 0  -0.3009421529021661 -1.83566592428439 0  -0.1007076192198891 -1.857442742160122 0  0.1007076192198868 -1.857442742160123 0  0.3009421529021655 -1.83566592428439 0  0.497648414995699 -1.792367601811783 0  0.6885202044276945 -1.728055407985259 0  0.8713197239828013 -1.643483344476234 0  1.043903816429429 -1.539642941404378 0  1.204249091078785 -1.417751632553521 0  1.350475646190685 -1.279238482073654 0  1.480869109102658 -1.12572743001037 0  1.593900735681941 -0.9590182530926203 0  1.688245333452693 -0.7810654639961109 0  1.762796798266141 -0.5939553964692095 0  1.816681082360401 -0.3998817449773059 0  1.849266441771339 -0.2011198456409096 0  8.458077213280291e-05 -0.09403198710719562 0  2.220446049250313e-16 1.349325116897694 0  -0.6044060343412759 1.20788093915964 0  0.568850582222488 1.229550383594666 0  0.988754878051499 0.932785414067606 0  -1.041617504179795 0.8847578827336795 0  1.281337755721221 0.5105316238318353 0  -1.311413878112435 0.4195778078992396 0  1.39231480225153 -0.03470141006283511 0  -1.397060180951189 -0.07574640204891525 0  0.0008916518150136887 -0.5595641100831842 0  0.002573762965614228 0.3711818475709029 0  -0.4592970259978696 -0.02201849720096152 0  0.4129391272212813 0.1198337408681536 0  1.322738839348171 -0.4831338093806632 0  -1.313993239403065 -0.5235427577320634 0  1.08861210204799 -0.9246754539562608 0  -1.088571859682481 -0.9246412717828986 0  0.7418493691963517 -1.232963242893616 0  -0.7417852779120608 -1.232856722350495 0  -0.1561809304293318 -1.436059940117812 0  0.284872640609731 -1.412471090466279 0  0.4020517370035444 -0.338213276566842 0  -0.3919436745386765 -0.4308827146239105 0  -0.3452478712744748 1.462538273605759 0  -0.270321137357826 1.13550540546555 0  0.326839315855868 1.484845981455517 0  -0.3631993759348166 0.3329681471827254 0  -0.9414829435776797 1.206620433193776 0  -0.4249560351460783 -1.265215549389057 0  0.9446943022933044 1.242724102226553 0  -1.34118422863202 0.7476727405557925 0  1.533951068216614 0.2514785129519932 0  1.296207815090148 0.8333285524802652 0  0.3185786926520647 0.4264425646604552 0  0.2722296335685609 1.116513461323462 0  -1.558032508929681 0.2554264647646316 0  0.3032598053891621 -0.6333620319756886 0  0.6270164655409951 -0.1352912668005961 0  -0.2048945237915118 0.09961327703659385 0  -0.7264316977024451 0.9156388104655933 0  0.6791618585389356 0.9401821548235153 0  1.543806407247833 -0.2878195838344002 0  -1.041526767819659 0.5738766114378138 0  1.199000215510269 0.2098619103453629 0  1.352149745535623 -0.7815723771403217 0  1.004781134977026 0.5735820995180905 0  -0.605805077141206 -1.468694298570364 0  -1.589305655026197 -0.2605534368295386 0  -0.6214486247880133 -0.2587099478585456 0  -0.2720659020514005 -0.6853066208620689 0  -0.6109264947371003 1.47371457957472 0  -1.20040156315691 0.1453160765070131 0  0.002064919783391517 1.088989631560769 0  -0.1118740608989143 1.591190772407225 0  -1.350349495749636 -0.8078691306219048 0  -0.1404348037883388 -0.3270423600024227 0  0.7505286599197051 1.414271181160814 0  0.5163176718048904 -1.532376242654566 0  -0.4775636731227583 0.9861298841417498 0  -1.173663577046959 -0.294825764073616 0  -1.116142198840141 -1.1782969933612 0  1.023089928138078 -1.200139587831459 0  -0.8177171195216347 -0.969090890094942 0  -1.048770397456371 -0.6587987104322695 0  -1.171082853729749 1.101543500067756 0  1.160691556190829 1.115328909188395 0  1.198467005575408 -0.2342388848564046 0  1.083739853032428 -0.639248469162699 0  0.8150555661557225 -0.96959608706936 0  -0.1458764114480162 0.5724950707172031 0  -0.5947585496561114 0.2051525059694304 0  -0.3503678911491266 -1.591737376641811 0  -8.743006318923108e-16 -1.629842181116577 0  0.4981780967374666 -1.2840657327858 0  0.8294005899824267 0.7457164726402371 0  1.473062193932436 0.6634405574243564 0  -1.540881257461943 0.4969924937019758 0  0.1417998857856443 0.1378233248974397 0  0.6558338211144195 0.1062690627873397 0  0.540981298266258 0.3270637394598651 0  0.09148729763627947 0.5921383405567677 0  0.1085900705157947 -0.7746344585877722 0  1.519945736829837 -0.614367707188372 0  0.1339772132462995 -0.3265666248558308 0  0.2778454202854194 -0.1061080967178538 0  -1.627132888160618 -0.02880849475480793 0  1.622776940010117 0.0293774856717391 0  -0.6927308287078908 -0.03598743258927824 0  -0.86728718473112 0.7293681153224814 0  0.5752342036764174 -0.4933011942168531 0  0.05685469903747348 -1.284199290059612 0  -1.073384107506297 0.3419575943492281 0  -1.530391359821856 -0.6097636493886722 0  0.1269846030327672 1.618471565773476 0  1.169483972879966 -0.0121533686573075 0  0.5826304726975805 -1.078407359224049 0  0.4756855740669138 1.028324333460176 0  -0.8356050451143449 1.413681512866064 0  -0.5675146875039615 -1.093788399183921 0  -0.2533504684123377 -0.1259046637329946 0  -1.176329048934901 -0.07410462021011383 0  -1.28121199385991 -1.03202903477598 0  1.220171989159952 -1.101493071845247 0  0.5534740314937818 1.538349252311594 0  -0.8559436038425716 -1.422589335987502 0  0.7334548343209693 -1.461287035889866 0  -0.6034118683986212 -0.4737176271794985 0  0.917430728831884 -0.7784223163662901 0  -0.2093686196437493 -1.222892832401279 0  0.3226166813110245 -1.622940389366307 0  0.2527129544379526 -1.202838632658254 0  1.091939841402334 -0.4228170968314403 0  -1.381989970853849 -0.2838183563096647 0  1.482928951002104 0.4544181099117409 0  1.047982991159706 0.3629364132925239 0  -1.33767287145271 0.9638030857476765 0  0.7602541105861287 1.136805898959768 0  -0.3788859117237817 0.5331049582545212 0  -0.4744497422717796 -0.63700091014283 0  -0.4284850007281098 -0.2170158700825014 0  -0.08319293814059614 -0.
[...]
<PointData  Vectors="f_445-0"> 
<DataArray  type="Float64"  Name="f_445-0"  NumberOfComponents="3" format="ascii">-4.0155445485099271e-02 -1.1659642034685709e-01 0.0000000000000000e+00  -2.3679681492465854e-02 -1.2196687048927857e-01 0.0000000000000000e+00  -4.5960915983997222e-03 -1.2585355059054326e-01 0.0000000000000000e+00  1.7657478945342114e-02 -1.2753757114531278e-01 0.0000000000000000e+00  3.4870159377483369e-02 -1.2735139437686285e-01 0.0000000000000000e+00  5.3212379766802806e-02 -1.1775838029303189e-01 0.0000000000000000e+00  6.5269872188352909e-02 -9.9698401032130998e-02 0.0000000000000000e+00  7.5778069474871909e-02 -8.3734286329971180e-02 0.0000000000000000e+00  8.2190547545189521e-02 -6.5078790827104785e-02 0.0000000000000000e+00  7.8703786697254918e-02 -4.6403457302006117e-02 0.0000000000000000e+00  7.5097111009810716e-02 -2.5593803705040514e-02 0.0000000000000000e+00  6.4361231362446383e-02 -8.1825091046958849e-03 0.0000000000000000e+00  5.3912428525149894e-02 4.9885803941687457e-03 0.0000000000000000e+00  4.5906597284814568e-02 1.6776400893580328e-02 0.0000000000000000e+00  2.7054655275965938e-02 2.5973862232095163e-02 0.0000000000000000e+00  7.9781773272344526e-03 3.1569242444415981e-02 0.0000000000000000e+00  -5.4562783679639954e-03 3.7953564924485088e-02 0.0000000000000000e+00  -2.2298891531302000e-02 3.2038562868770298e-02 0.0000000000000000e+00  -4.1688424667428239e-02 2.0820849806098524e-02 0.0000000000000000e+00  -5.4778867796327735e-02 6.8660452352941534e-03 0.0000000000000000e+00  -6.3262861485473276e-02 -1.0816973909973463e-02 0.0000000000000000e+00  -7.6834894389252673e-02 -2.7745633189058087e-02 0.0000000000000000e+00  -7.9902125013122577e-02 -4.3623081527975213e-02 0.0000000000000000e+00  -7.7000978902238032e-02 -6.2235493830565189e-02 0.0000000000000000e+00  -7.2449781100480726e-02 -7.9704518614991074e-02 0.0000000000000000e+00  -6.5656008929799684e-02 -1.0232988413249201e-01 0.0000000000000000e+00  -5.2882073227962317e-02 -1.1732015642110505e-01 0.0000000000000000e+00  -3.6572178895955022e-02 -1.2514385389533772e-01 0.0000000000000000e+00  -1.7232600593311199e-02 -1.2883708428434110e-01 0.0000000000000000e+00  4.5455963348558920e-03 -1.3110681731422202e-01 0.0000000000000000e+00  2.2735835820096115e-02 -1.2733137146497131e-01 0.0000000000000000e+00  4.0606897024620600e-02 -1.1795677488513967e-01 0.0000000000000000e+00  5.6373933666810185e-02 -1.0562383387787710e-01 0.0000000000000000e+00  7.0218776425792231e-02 -8.9929946917760420e-02 0.0000000000000000e+00  8.0625165500947879e-02 -7.4870364141474868e-02 0.0000000000000000e+00  8.4455786095132976e-02 -5.8242759254946611e-02 0.0000000000000000e+00  8.9265740602763946e-02 -3.9844101872803718e-02 0.0000000000000000e+00  8.9386775778345931e-02 -2.0143837691052872e-02 0.0000000000000000e+00  8.6939013008217950e-02 -2.8586216520901397e-03 0.0000000000000000e+00  8.2500669382418318e-02 1.4478535107918309e-02 0.0000000000000000e+00  7.3940109370097665e-02 2.7822188439135000e-02 0.0000000000000000e+00  5.7088448273494977e-02 4.1381017479257765e-02 0.0000000000000000e+00  4.1121430219821058e-02 4.9246476440900640e-02 0.0000000000000000e+00  2.5793871129980977e-02 5.4392943749029914e-02 0.0000000000000000e+00  6.9653522824285356e-03 5.2718774123480187e-02 0.0000000000000000e+00  -8.4073802294279999e-03 5.7367483815173384e-02 0.0000000000000000e+00  -2.3031041834613301e-02 5.6771918711134239e-02 0.0000000000000000e+00  -4.2550396793632574e-02 5.0167939361920828e-02 0.0000000000000000e+00  -5.6739652697155585e-02 4.1225835112098749e-02 0.0000000000000000e+00  -6.5153161782470201e-02 3.1899566588253318e-02 0.0000000000000000e+00  -7.6828915822567692e-02 1.6740675845431326e-02 0.0000000000000000e+00  -8.7675885603367962e-02 -3.2129911348706265e-03 0.0000000000000000e+00  -8.9454515350844074e-02 -2.0715839585279901e-02 0.0000000000000000e+00  -8.9220479591256480e-02 -3.6082572094703523e-02 0.0000000000000000e+00  -8.7702755844887847e-02 -5.8903695693831373e-02 0.0000000000000000e+00  -8.0621249866849126e-02 -7.8959813136481649e-02 0.0000000000000000e+00  -7.0495418114928182e-02 -9.0297702775308505e-02 0.0000000000000000e+00  -5.6719635048567793e-02 -1.0345652351160731e-01 0.0000000000000000e+00  1.0238043915490153e-01 -1.0225719154856581e-05 0.0000000000000000e+00  1.0179677550516231e-01 1.1063878874391813e-02 0.0000000000000000e+00  9.9989935552803666e-02 2.2010050594128635e-02 0.0000000000000000e+00  9.6994487765882625e-02 3.2672323585578755e-02 0.0000000000000000e+00  9.2902505738199248e-02 4.2971006847360091e-02 0.0000000000000000e+00  8.7738971555473250e-02 5.2774920743567121e-02 0.0000000000000000e+00  8.1518056110692599e-02 6.1976613607422654e-02 0.0000000000000000e+00  7.4338117150258676e-02 7.0404166840649943e-02 0.0000000000000000e+00  6.6292659636298407e-02 7.8053033886953060e-02 0.0000000000000000e+00  5.7460005009789553e-02 8.4747800653981881e-02 0.0000000000000000e+00  4.7962843493490566e-02 9.0473465830436556e-02 0.0000000000000000e+00  3.7913980785032643e-02 9.5113751398428356e-02 0.0000000000000000e+00  2.7386414099768989e-02 9.8623902045947426e-02 0.0000000000000000e+00  1.6558657977119695e-02 1.0105124800494551e-01 0.0000000000000000e+00  5.5271024256963721e-03 1.0224199173396430e-01 0.0000000000000000e+00  -5.5408213541802117e-03 1.0224250438790583e-01 0.0000000000000000e+00  -1.6575849887759744e-02 1.0104289031730608e-01 0.0000000000000000e+00  -2.7385653295602139e-02 9.8665550258158777e-02 0.0000000000000000e+00  -3.7887714728879564e-02 9.5094988453386695e-02 0.0000000000000000e+00  -4.7955510220422208e-02 9.0469171543404336e-02 0.0000000000000000e+00  -5.7448425710315644e-02 8.4718901873697988e-02 0.0000000000000000e+00  -6.6290096659384692e-02 7.8039460651708165e-02 0.0000000000000000e+00  -7.4338860957004399e-02 7.0411108794072932e-02 0.0000000000000000e+00  -8.1505303006183222e-02 6.1969963430689022e-02 0.0000000000000000e+00  -8.7742621663831344e-02 5.2771250734845329e-02 0.0000000000000000e+00  -9.2923541817360594e-02 4.2990856394514949e-02 0.0000000000000000e+00  -9.7027180059186854e-02 3.2707796038665665e-02 0.0000000000000000e+00  -9.9952301957962564e-02 2.1993930067560043e-02 0.0000000000000000e+00  -1.0178811013855162e-01 1.1057687481380696e-02 0.0000000000000000e+00  -1.0238593747169035e-01 5.9938317606253061e-06 0.0000000000000000e+00  -1.0178265981321705e-01 -1.1079317881091646e-02 0.0000000000000000e+00  -9.9986956244506819e-02 -2.2014789046471930e-02 0.0000000000000000e+00  -9.6988978403042436e-02 -3.2688916280752905e-02 0.0000000000000000e+00  -9.2912915163990251e-02 -4.3007668869618286e-02 0.0000000000000000e+00  -8.7696904155763603e-02 -5.2773858011109072e-02 0.0000000000000000e+00  -8.1479704290241817e-02 -6.1942259834139195e-02 0.0000000000000000e+00  -7.4298937179090654e-02 -7.0389304029826058e-02 0.0000000000000000e+00  -6.6250850829292399e-02 -7.8012732989124700e-02 0.0000000000000000e+00  -5.7433118381903202e-02 -8.4715686526338430e-02 0.0000000000000000e+00  -4.7945985487838912e-02 -9.0462188247360298e-02 0.0000000000000000e+00  -3.7884269159000103e-02 -9.5082754909640008e-02 0.0000000000000000e+00  -2.7397578318656989e-02 -9.8646141052497333e-02 0.0000000000000000e+00  -1.6553023051361755e-02 -1.0099526517975704e-01 0.0000000000000000e+00  -5.5426010911926154e-03 -1.0219231203930909e-01 0.0000000000000000e+00  5.5549848578062330e-03 -1.0222627707736648e-01 0.0000000000000000e+00  1.6541949406975166e-02 -1.0103530407755797e-01 0.0000000000000000e+00  2.7388731892276412e-02 -9.8645303464550763e-02 0.0000000000000000e+00  3.7892320613919769e-02 -9.5105535298964095e-02 0.0000000000000000e+00  4.7958647536222129e-02 -9.0455021895245596e-02 0.0000000000000000e+00  5.7432484369421874e-02 -8.4724354238613769e-02 0.0000000000000000e+00  6.6278457075834199e-02 -7.8038142554982079e-02 0.0000000000000000e+00  7.4303548635531513e-02 -7.0394603919869889e-02 0.0000000000000000e+00  8.1513905466582784e-02 -6.1951103347868894e-02 0.0000000000000000e+00  8.7700132284100035e-02 -5.2769573214184608e-02 0.0000000000000000e+00  9.2915279059909109e-02 -4.3004858218151039e-02 0.0000000000000000e+00  9.6993931215668919e-02 -3.2683204849581295e-02 0.0000000000000000e+00  9.9990565985625335e-02 -2.2024478958187019e-02 0.0000000000000000e+00  1.0175590646216437e-01 -1.1065744972077792e-02 0.0000000000000000e+00  -2.0041598288896183e-04 1.5387624978136707e-01 0.0000000000000000e+00  3.0333930265886001e-04 7.1710646731114144e-02 0.0000000000000000e+00  -5.4576378967408565e-02 5.4258200148779870e-02 0.0000000000000000e+00  4.9987270221672292e-02 5.7725184518413554e-02 0.0000000000000000e+00  8.2046221178920048e-02 2.0339892112440614e-02 0.0000000000000000e+00  -8.4323637343568819e-02 1.4231945839545830e-02 0.0000000000000000e+00  8.8293306733710900e-02 -2.5074363637476241e-02 0.0000000000000000e+00  -8.6941547471218780e-02 -3.3950188330636601e-02 0.0000000000000000e+00  6.8802952108821841e-02 -6.6583301503946327e-02 0.0000000000000000e+00  -6.7526971946442249e-02 -6.8890477569984288e-02 0.0000000000000000e+00  -2.6739964333032839e-04 1.2845440113694556e-01 0.0000000000000000e+00  -1.7838249294072860e-05 1.1923145391278463e-01 0.0000000000000000e+00  -2.9633368674370563e-02 7.0975652704574954e-02 0.0000000000000000e+00  4.1271899398610527e-02 8.1478565921928758e-02 0.0000000000000000e+00  4.3358684995754480e-02 -8.4676062543118172e-02 0.0000000000000000e+00  -4.1815205977156322e-02 -8.4434902734848633e-02 0.0000000000000000e+00  1.7871032465581842e-02 -8.9373161607926840e-02 0.0000000000000000e+00  -1.8902534879247437e-02 -8.8601225004917170e-02 0.0000000000000000e+00  -8.6058198709749166e-04 -8.1591698366166879e-02 0.0000000000000000e+00  7.7156895961594268e-05 -8.0597827467841873e-02 0.0000000000000000e+00  2.5713928231506007e-03 -6.4410650780567610e-02 0.0000000000000000e+00  -5.8047314021523241e-03 -6.6204887694345835e-02 0.0000000000000000e+00  -1.1432345854150549e-02 8.4246187830038205e-02 0.0000000000000000e+00  2.3716098503815872e-02 7.8443553440807029e-02 0.0000000000000000e+00  -2.8231036789615770e-02 8.2981987774014609e-02 0.0000000000000000e+00  -2.8649345042885525e-02 5.1098968423714912e-02 0.0000000000000000e+00  2.5578510784218567e-02 8.4421743958360260e-02 0.0000000000000000e+00  -5.1433693001636409e-02 8.0768897361942357e-02 0.0000000000000000e+00  -7.3005485088592822e-02 5.6289666650574437e-02 0.0000000000000000e+00  1.8718392425447566e-02 -5.3458551743637492e-02 0.0000000000000000e+00  7.1668106725640918e-02 6.1525935237778703e-02 0.0000000000000000e+00  -9.4570204506497113e-02 1.3090139577221931e-02 0.0000000000000000e+00  9.4439262713180469e-02 -2.4538855852479665e-02 0.0000000000000000e+00  9.3071267287518786e-02 2.1106587391699065e-02 0.0000000000000000e+00  4.8898724303198762e-02 8.0510263712975080e-02 0.0000000000000000e+00  2.8741868246219174e-02 4.7669262148280288e-02 0.0000000000000000e+00  -9.6586857754020261e-02 -2.1233701478144778e-02 0.0000000000000000e+00  -3.6519782460533140e-02 7.7369100494275519e-02 0.0000000000000000e+00  1.9362591151724555e-02 5.8784013533520242e-04 0.0000000000000000e+00  -2.0767815843570223e-02 1.3009509205954989e-01 0.0000000000000000e+00  -7.1439898496015855e-02 1.4486400921989568e-02 0.0000000000000000e+00  6.9204624397617695e-02 2.1283384767682947e-02 0.0000000000000000e+00  8.1006605752402927e-02 -5.4978995559378421e-02 0.0000000000000000e+00  -8.2740043570505767e-02 -3.7201301227097000e-02 0.0000000000000000e+00  6.7230695273111415e-02 -7.5948143076680005e-02 0.0000000000000000e+00  5.7270318244063576e-02 -7.7965093179230852e-02 0.0000000000000000e+00  8.2933213453561569e-02 -3.7041760741000587e-02 0.0000000000000000e+00  -1.4034724593789254e-02 -8.9952004452893128e-02 0.0000000000000000e+00  -8.6311278292795959e-02 -4.8670173358276524e-02 0.0000000000000000e+00  5.2049334949129927e-03 -4.8022500696125328e-03 0.0000000000000000e+00  4.0342654143468361e-02 7.5758974339178525e-02 0.0000000000000000e+00  -4.6362197702813163e-02 8.3218138749545312e-02 0.0000000000000000e+00  -6.2617786269631256e-02 -8.3353770498038077e-02 0.0000000000000000e+00  -1.7986238671400609e-04 4.9669780872246286e-02 0.0000000000000000e+00  -8.2947337353451913e-03 9.3951031314798053e-02 0.0000000000000000e+00  -5.8005237414107187e-02 -7.7182612952967883e-02 0.0000000000000000e+00  2.8225854456202354e-03 1.4186182772818762e-01 0.0000000000000000e+00  5.5474053598210817e-02 7.8144204649541832e-02 0.0000000000000000e+00  1.2946853903089554e-02 -9.1679144755992995e-02 0.0000000000000000e+00  -5.4651385818008602e-02 3.4233936403764854e-02 0.0000000000000000e+00  -1.7011362706246966e-02 -1.0872532388927608e-01 0.0000000000000000e+00  -4.4893800757678071e-02 -8.6863204433195229e-02 0.0000000000000000e+00  3.3013937463831265e-02 -8.8716068070295681e-02 0.0000000000000000e+00  2.8823675150833065e-02 -7.9750635582546164e-02 0.0000000000000000e+00  1.3500027634364418e-02 -1.0200802905805875e-01 0.0000000000000000e+00  -8.3983867186984154e-02 4.9511732846688097e-02 0.0000000000000000e+00  8.3462057048360294e-02 5.0902445045516220e-02 0.0000000000000000e+00  2.9311667607582446e-02 -1.0603870954006511e-01 0.0000000000000000e+00  -4.0916215879734019e-03 -1.0241679351299003e-01 0.0000000000000000e+00  -3.0188354389073593e-02 -8.0405025432584223e-02 0.0000000000000000e+00  -2.5663278328667011e-02 8.7757026463376159e-02 0.0000000000000000e+00  -6.4814840615233182e-02 1.2863546960843976e-02 0.0000000000000000e+00  -8.9420935906816754e-03 -9.2075883162573743e-02 0.0000000000000000e+00  2.9408892144519962e-05 -9.1055013321713035e-02 0.0000000000000000e+00  -1.5031273124743434e-02 -6.3929747747014876e-02 0.0000000000000000e+00  8.2049361802227438e-02 -9.8944237601820539e-03 0.0000000000000000e+00  9.8262600830782740e-02 1.3498003169527149e-02 0.0000000000000000e+00  -9.9660377630838015e-02 1.4042363186600832e-03 0.0000000000000000e+00  1.5219148938325048e-02 1.3526252922392387e-01 0.0000000000000000e+00  5.8546120534358453e-02 -1.1822861759833816e-02 0.0000000000000000e+00  7.2279554719004560e-02 2.6323323026451045e-02 0.0000000000000000e+00  1.7236883321825436e-02 8.8875767293007099e-02 0.0000000000000000e+00  -1.9545517871343929e-02 8.8621518644445785e-02 0.0000000000000000e+00  7.7620105429855438e-02 -6.2254828084273219e-02 0.0000000000000000e+00  -2.8061831841819564e-03 1.4307065136361602e-01 0.0000000000000000e+00  1.3059942375686050e-02 1.2462262793804325e-01 0.0000000000000000e+00  -9.4425946721190604e-02 -3.3270790276994908e-02 0.0000000000000000e+00  9.5117805554148963e-02 -2.9655236929079450e-02 0.0000000000000000e+00  -3.6226534201664884e-02 -3.1909976198779888e-02 0.0000000000000000e+00  -8.3573255466066712e-02 -1.3623266171420690e-02 0.0000000000000000e+00  -4.7529426508722328e-02 -2.5063886992648600e-03 0.0000000000000000e+00  -4.4936684539381780e-03 -2.7126308471344472e-02 0.0000000000000000e+00  -7.6696913916980802e-02 -7.1042068594902100e-02 0.0000000000000000e+00  -7.8669371036918637e-02 -6.0890357004771516e-02 0.0000000000000000e+00  9.3710437833279883e-03 9.5408751265403935e-02 0.0000000000000000e+00  4.5720536282706545e-02 -1.0223720975665071e-01 0.0000000000000000e+00  -4.0696169476205711e-02 -5.5108449516062967e-02 0.0000000000000000e+00  5.1721035654023202e-02 3.7973584235123453e-02 0.0000000000000000e+00  -6.0224478869622018e-02 7.7440812456850555e-02 0.0000000000000000e+00  3.8708019137746227e-02 -5.2683549092562329e-02 0.0000000000000000e+00  -1.0567923361461694e-02 1.2922014103874005e-01 0.0000000000000000e+00  -4.1255997159264736e-02 -1.0512652170186189e-01 0.0000000000000000e+00  -5.8551677572896144e-02 -7.9913717732052011e-02 0.0000000000000000e+00  5.3356915251963628e-02 -8.3443358014642408e-02 0.0000000000000000e+00  3.9590732955969175e-02 8.8660695272257214e-02 0.0000000000000000e+00  -3.2706116261216597e-02 -9.2290854269808112e-02 0.0000000000000000e+00  2.3680742052227966e-02 -9.2892099160264710e-02 0.0000000000000000e+00  4.6410429479313391e-02 -1.5511836533673619e-02 0.0000000000000000e+00  -3.4085052717644643e-02 -9.7149105053402351e-02 0.0000000000000000e+00  1.7889767874228319e-02 -2.4455296072582355e-02 0.0000000000000000e+00  9.0890091523490226e-03 -9.4086564509624770e-02 0.0000000000000000e+00  -2.4834289444845507e-02 -2.5285462940264326e-02 0.0000000000000000e+00  -5.0698221117003841e-03 -1.1798950377244417e-01 0.0000000000000000e+00  -5.6006059962032222e-02 -7.7368678066826457e-02 0.0000000000000000e+00  9.6792015867510628e-02 -9.9571515786273015e-03 0.0000000000000000e+00  7.6688364665442127e-02 -6.9591118342227989e-02 0.0000000000000000e+00  -9.1131825591145244e-02 4.0231438900085188e-02 0.0000000000000000e+00  6.5768629195566738e-02 4.6391314914874963e-02 0.0000000000000000e+00  -6.3001052060910626e-02 5.6821606300232898e-02 0.0000000000000000e+00  6.1200841547918702e-02 1.8789435580581493e-02 0.0000000000000000e+00  -4.4132548765109820e-03 8.0085897635854511e-02 0.0000000000000000e+00  1.2847387141381577e-02 9.3879535839264103e-02 0.0000000000000000e+00  8.6455444627554945e-02 -2.4986667786009889e-03 0.0000000000000000e+00  3.5615862778603978e-02 -9.1467924130669134e-02 0.0000000000000000e+00  3.8525101380361061e-02 -9.5498754988430218e-02 0.0000000000000000e+00  1.0167240509762230e-02 -1.1685359224240001e-01 0.0000000000000000e+00  1.7728114819487256e-02 1.1557163324131670e-01 0.0000000000000000e+00  -1.2205859858739895e-02 -8.6573474929836636e-02 0.0000000000000000e+00  -7.5814529916538392e-02 1.8683339512978084e-02 0.0000000000000000e+00  8.8812683212980900e-02 -4.7590712671280309e-02 0.0000000000000000e+00  -2.4969078868424564e-02 9.6480148571349969e-02 0.0000000000000000e+00  8.4135425995620267e-02 -4.1441958309488686e-02 0.0000000000000000e+00  -7.8924877607784660e-02 -5.4378502404600043e-02 0.0000000000000000e+00  1.8240386905107212e-02 6.6607683856277633e-02 0.0000000000000000e+00  3.4374780184116799e-02 6.1778925361394767e-02 0.0000000000000000e+00  7.6897893737815484e-02 -5.6111811300149569e-02 0.0000000000000000e+00  -4.4323911725578848e-02 7.8954578309692172e-02 0.0000000000000000e+00  -2.4735266778212559e-02 1.1831997299684513e-01 0.0000000000000000e+00  6.6164555655280288e-02 -7.5373252378848218e-02 0.0000000000000000e+00  -6.1629148605796998e-03 -9.6605836424151603e-02 0.0000000000000000e+00  -1.6748455665943612e-02 -5.5993170628965167e-02 0.0000000000000000e+00  -1.4441118832592184e-02 7.8982164542842570e-02 0.0000000000000000e+00  -4.1744275230699901e-02 7.0561894556042032e-02 0.0000000000000000e+00  -7.6324804512222594e-02 2.9338556770142139e-02 0.0000000000000000e+00  9.2204335168032006e-04 -8.1482785727596499e-02 0.0000000000000000e+00  -7.3820607768127169e-02 -6.3042646512169911e-02 0.0000000000000000e+00  -4.5479572546658451e-02 -8.8716135614340039e-02 0.0000000000000000e+00  -3.9548922605738113e-02 -3.3532066130799183e-02 0.0000000000000000e+00  2.0318109525787557e-02 9.7035347367866828e-02 0.0000000000000000e+00  -4.7591959707568030e-03 1.3937232241955161e-01 0.0000000000000000e+00  -1.4009428999412389e-02 1.2260972732775659e-01 0.0000000000000000e+00  1.2070106872034499e-02 7.5474402827011886e-02 0.0000000000000000e+00  5.3524559266209699e-02 -8.0166559935051521e-02 0.0000000000000000e+00  -9.5842393185921443e-02 3.2432389873311381e-02 0.0000000000000000e+00  -6.6255567286836320e-02 3.8610005074188158e-02 0.0000000000000000e+00  -6.8836875403678319e-02 7.3185702942679370e-02 0.0000000000000000e+00  -8.8568657780609530e-02 -1.8575431815919696e-02 0.0000000000000000e+00  -8.7058986851234754e-02 -5.9237029652492420e-03 0.0000000000000000e+00  8.9166732295247728e-02 4.5815328768621537e-02 0.0000000000000000e+00  -1.1972553546946804e-02 6.0408823759385277e-02 0.0000000000000000e+00  -4.3936097738467038e-02 5.0777369304492850e-02 0.0000000000000000e+00  5.7002237909787500e-02 6.1768659695942071e-02 0.0000000000000000e+00  -1.9780136569330857e-02 -9.6423370349399906e-02 0.0000000000000000e+00  7.2535589668613995e-02 3.3181516095152359e-02 0.00000000000