<?xml version="1.0"?>
<VTKFile type="UnstructuredGrid"  version="0.1"  >
<UnstructuredGrid>
<Piece  NumberOfPoints="939" NumberOfCells="1746">
<Points>
<DataArray  type="Float64"  NumberOfComponents="3"  format="ascii">-0.980305826508326 0.03467276590663751 0  -0.9760216588500217 -0.07034939882191471 0  -0.9599029129785601 -0.1742961963910102 0  -0.9319254801104101 -0.2757531358014477 0  -0.8926291209568675 -0.373345692748438 0  -0.8420928366491467 -0.4655906458081423 0  -0.7818466439171438 -0.5513893371612556 0  -0.7132420959572974 -0.6297777622142828 0  -0.6370531671609135 -0.7000541369362051 0  -0.553674611934994 -0.7610179556820588 0  -0.464400524142596 -0.8129613206630408 0  -0.3703488040367279 -0.8551345610070403 0  -0.2726870416249921 -0.8881881285412391 0  -0.1721144672970194 -0.9108712183062104 0  -0.06985465961957522 -0.9235078628300444 0  0.03316910523908574 -0.9259849429406662 0  0.1358168461131715 -0.9168662582332758 0  0.2370453119185654 -0.8976982636256484 0  0.3359253725965233 -0.8683065569198062 0  0.431386683474848 -0.8293463672550345 0  0.522361152777494 -0.7808644214502387 0  0.6079678933901529 -0.7230598870256499 0  0.6870666584820306 -0.6563110560217803 0  0.7584602478587055 -0.5807053177869106 0  0.8218368938669462 -0.4973891678008888 0  0.8756096131804655 -0.4071306649467502 0  0.9188555323407954 -0.3111754942211776 0  0.9509015850658136 -0.2109649666324478 0  0.9712593136104977 -0.1078032321323217 0  0.9798259711565667 -0.003019750119488122 0  0.9764206576116172 0.101978751918071 0  0.9611167666899517 0.2058942346876752 0  0.9343497182520071 0.3074162733089772 0  0.8963716710258914 0.4052961719628409 0  0.8478643019275015 0.4983728857717353 0  0.7892231431129201 0.5854959799111864 0  0.7215289931182292 0.6657385018089141 0  0.6455274263074169 0.7382303242422706 0  0.5621287957156882 0.8020843507684784 0  0.4724284582176573 0.8568341524327644 0  0.3774020004302034 0.9017443039579717 0  0.2781917406222648 0.9363908077061086 0  0.1758125362716391 0.960464632387958 0  0.0713941373948649 0.9737212373699307 0  -0.03373213816347693 0.9756032981921129 0  -0.1385188560477146 0.9661721379037502 0  -0.2417070090031473 0.9458428765304709 0  -0.3421346399771115 0.914971373967702 0  -0.438765597078501 0.8736608548107458 0  -0.5304816434446501 0.8224886265145953 0  -0.6162427392135 0.7617849563589918 0  -0.6950787273403319 0.6924364533531782 0  -0.7659544691173208 0.61498658183812 0  -0.8280095992527096 0.5303108100580133 0  -0.8803592218140802 0.4392685216777789 0  -0.922328121080924 0.3430453292772809 0  -0.9531241730936264 0.2426508908646685 0  -0.9727059182770881 0.1394641831656207 0  -2.079737492041879 0.100596620800976 0  -2.079737492041879 -0.1005966208009755 0  -2.060319543433373 -0.3008506188587888 0  -2.021664946370639 -0.4982956557480918 0  -1.964134608411537 -0.6910882403581147 0  -1.88826567482089 -0.8774283202714784 0  -1.794766513389863 -1.055576088368628 0  -1.684510100596764 -1.223868226938137 0  -1.558525870860873 -1.380733437626024 0  -1.417990104990635 -1.524707112225121 0  -1.264214947566684 -1.654445007327286 0  -1.098636155801434 -1.768735795161919 0  -0.9227996942608262 -1.866512373436979 0  -0.7383473006097134 -1.946861828585575 0  -0.5470011571496323 -2.009033959393963 0  -0.3505478112666642 -2.052448281428151 0  -0.1508214949198549 -2.076699446860657 0  0.05031300108838856 -2.081561029093958 0  0.2509777381615682 -2.066987636844624 0  0.4492991637157929 -2.0331153379495 0  0.6434256040354588 -1.980260388936976 0  0.8315445528518145 -1.908916282224995 0  1.011899594225645 -1.819749138515305 0  1.18280680172966 -1.713591487403947 0  1.342670460815828 -1.59143449427673 0  1.489997967572171 -1.454418706065079 0  1.62341376476334 -1.303823402266633 0  1.741672185037884 -1.141054650657269 0  1.84366908138869 -0.9676321792151198 0  1.928452136276099 -0.7851751868299006 0  1.995229753160172 -0.5953872252791604 0  2.04337844742431 -0.4000402936243229 0  2.072448667683127 -0.2009582935328921 0  2.082168993122609 0 0  2.072448667683127 0.200958293532891 0  2.04337844742431 0.400040293624323 0  1.995229753160172 0.5953872252791601 0  1.928452136276099 0.7851751868298997 0  1.843669081388691 0.9676321792151183 0  1.741672185037884 1.141054650657269 0  1.62341376476334 1.303823402266633 0  1.489997967572172 1.454418706065078 0  1.342670460815828 1.59143449427673 0  1.182806801729661 1.713591487403947 0  1.011899594225646 1.819749138515304 0  0.8315445528518145 1.908916282224995 0  0.6434256040354592 1.980260388936976 0  0.4492991637157938 2.0331153379495 0  0.2509777381615682 2.066987636844624 0  0.05031300108838907 2.081561029093958 0  -0.1508214949198544 2.076699446860657 0  -0.3505478112666646 2.052448281428151 0  -0.5470011571496318 2.009033959393963 0  -0.7383473006097125 1.946861828585575 0  -0.9227996942608249 1.86651237343698 0  -1.098636155801433 1.768735795161919 0  -1.264214947566684 1.654445007327286 0  -1.417990104990634 1.524707112225122 0  -1.558525870860872 1.380733437626024 0  -1.684510100596763 1.223868226938138 0  -1.794766513389862 1.055576088368629 0  -1.888265674820889 0.8774283202714789 0  -1.964134608411537 0.6910882403581151 0  -2.021664946370638 0.4982956557480931 0  -2.060319543433373 0.3008506188587884 0  0.001829827585302105 0.02502776361583248 0  -0.03638421359800919 -1.505296036044317 0  0.5353673976098487 -1.411647811016727 0  -0.603127414270523 -1.38455568905931 0  1.033235391101149 -1.110996010388263 0  -1.086636546415204 -1.060689044009499 0  1.404964717675877 -0.5879822622957809 0  -1.428343257726943 -0.5323471586439125 0  -0.6115313328799952 1.403847953091463 0  0.8060165952048814 1.302518375326322 0  1.530808699432349 0.06740420450246463 0  0.02871995482681083 1.527029661148563 0  -1.505550565754417 0.2940334989237112 0  -1.098419342166381 1.072190481543795 0  1.242453980386584 0.9026956558403922 0  -0.4895105653170006 0.002095305592464805 0  0.4900614766389593 -0.01572058935294469 0  -0.2222854477399262 -0.39897403562564 0  -0.2523425837304685 0.4317571593142189 0  0.2801813077904349 0.4148525132342793 0  1.346817231085511 0.4713055225809997 0  -1.439105195192295 0.754853210627947 0  -1.633576573661108 -0.1347247494581601 0  0.2411418466589108 -0.4066982596112367 0  0.3938162113822125 1.333232727921691 0  0.6219817283467537 1.614002107697833 0  0.2893733246276691 -1.694273259550915 0  -0.3693817254990159 -1.677864964176144 0  1.39230997184488 -1.011572406711252 0  0.9080634628487905 -1.461925627095083 0  -0.9748854468152083 -1.416708000886086 0  -1.439663290210493 -0.9143392907381116 0  1.580370407937421 0.7343573369646796 0  1.689778290404822 0.383678527790721 0  -0.3302785350363613 1.667484955912221 0  -0.9792774341097664 1.420500257394136 0  1.175607402883151 1.26408284659524 0  1.710931496437249 -0.2498325083449782 0  -1.311758946047025 -0.03144666080026335 0  1.317480573033793 -0.2314088064121322 0  -1.228285643951023 0.4892550231426918 0  0.3023461259975838 1.727437057866769 0  -0.2611958105029398 1.308419441734457 0  1.072884173719453 -0.7541176009318756 0  -1.112047290922373 -0.7024526529554764 0  -0.2969779381220219 -1.23019094684958 0  0.2484196587115919 -1.23465134405496 0  0.02068206888578124 0.636341119615208 0  0.6827061419298796 -1.093084020998679 0  -0.566874099038178 0.3250868207937332 0  -0.5462290024577308 -0.3218919507070799 0  -0.736138706619582 -1.060276639649103 0  -0.7641683519996014 1.061704436631984 0  0.9027816859562093 0.9700310267153547 0  0.5866165846928879 0.3030441246114009 0  -1.681165837128908 0.5545555983821109 0  -1.773522547596967 0.1405559522870979 0  -1.053425710389533 0.7562332749464057 0  -1.412279779133039 1.067598880062886 0  -1.724970762898989 -0.5147404977213458 0  1.70001603854337 -0.5981571159258083 0  0.5506976950453626 -0.3290525639978986 0  0.005912285218433511 -0.6137791015139368 0  -0.1002266665376539 -1.78967116367081 0  0.6395741451899936 -1.686418422322958 0  -0.7699564171226774 -1.620895804441426 0  -0.0436895799184689 1.807535328214766 0  1.270727099392123 -1.270590223891489 0  -1.237192807959032 -1.303495583010184 0  1.105829810818813 0.6413241006005372 0  1.155941480868805 -0.4600606044113623 0  -1.225936430272473 -0.3154395192133638 0  -0.4922661265279339 1.150905192091552 0  1.813089996967081 0.08769891758015499 0  1.012464461770206 1.491507742523527 0  -0.7858762215913689 1.622592094742312 0  0.6450187178555336 1.075337899391602 0  1.254426405934665 0.0391626776865595 0  0.1186603967466587 1.255666516201297 0  -1.258688183853642 1.29810737347934 0  1.502169204059863 1.000708929758806 0  -0.023974908451442 -1.195221096432117 0  0.01042355622359592 0.3131812582226581 0  -1.250082565865164 0.2257076579314593 0  -0.881561712202465 -0.8366838079094326 0  0.8676837364862564 -0.9119617392376459 0  1.60421124799848 -0.8480702180836914 0  -0.7252378223739099 -0.08468417827339854 0  0.7210437565936307 -0.1120157427399244 0  0.3211907468706997 0.6598161287150621 0  0.2348757766636264 -0.1279815539547015 0  0.2681500235616185 0.1425489990699365 0  -0.006579242741066626 -0.2417588167430152 0  -0.2384970028746321 -0.1009229895960151 0  -0.2251887736053724 0.1659429355400149 0  -0.2444308278313979 -0.6438958683529008 0  -0.2960831956513972 0.6735789689272083 0  -1.653208131767647 -0.7651550672929263 0  0.4325668464893348 -0.55558906657171 0  -1.44107532198917 -1.162322825042001 0  -0.488599895382388 -1.072972401701378 0  1.170024974217915 0.3152641396336896 0  -1.599264778270042 0.9261140178430898 0  -1.252811392522214 0.8963973594650045 0  0.3068122254101967 -1.46108389829296 0  -1.861463777553269 -0.180499806843751 0  -0.5562743195172051 1.626740083323941 0  -1.454061327012352 0.5265132292322204 0  0.4404740332708087 -1.086902493076198 0  -0.5864849485808958 -1.767620057900569 0  1.507974924398548 -0.373690337122997 0  0.1232703251303687 -1.859169224736819 0  1.142932362936481 -1.467733932840747 0  -0.3799188899673949 -1.446468694313831 0  1.405617846615781 1.215134984222083 0  -1.566466690044499 -0.
[...]
<PointData  Vectors="f_1749-0"> 
<DataArray  type="Float64"  Name="f_1749-0"  NumberOfComponents="3" format="ascii">-2.5430447896064530e-02 -9.5732923863856456e-02 0.0000000000000000e+00  -3.7411985450701468e-03 -1.0795138120322290e-01 0.0000000000000000e+00  2.0970868223088569e-02 -1.1765686482864895e-01 0.0000000000000000e+00  4.3456669919151009e-02 -1.2462867380678655e-01 0.0000000000000000e+00  7.3920508128939841e-02 -1.3110482593055067e-01 0.0000000000000000e+00  9.6105745689977456e-02 -1.3219476295630639e-01 0.0000000000000000e+00  1.1527025167777782e-01 -1.2088770714851507e-01 0.0000000000000000e+00  1.3273160461206948e-01 -1.0050697329120507e-01 0.0000000000000000e+00  1.3960339497756538e-01 -7.1587915527091150e-02 0.0000000000000000e+00  1.3222141301576718e-01 -4.9452797574560843e-02 0.0000000000000000e+00  1.1610780558535154e-01 -2.4863144439647551e-02 0.0000000000000000e+00  9.0681550261062782e-02 -5.1667988724791421e-03 0.0000000000000000e+00  6.4432878291653298e-02 1.8473700076257978e-02 0.0000000000000000e+00  3.9869419082096194e-02 3.1335782703899272e-02 0.0000000000000000e+00  1.5000780767290322e-02 4.2058853470440243e-02 0.0000000000000000e+00  -9.8640800204225446e-03 5.0508430826224311e-02 0.0000000000000000e+00  -3.2657857352845036e-02 3.8081153543428614e-02 0.0000000000000000e+00  -5.8789375636115228e-02 2.3519152166042223e-02 0.0000000000000000e+00  -8.4204314366872576e-02 3.6146512232636944e-03 0.0000000000000000e+00  -1.0628731664599424e-01 -1.5758530408723846e-02 0.0000000000000000e+00  -1.2239928332660406e-01 -3.6662746990939667e-02 0.0000000000000000e+00  -1.3405149202635810e-01 -6.0097356018512120e-02 0.0000000000000000e+00  -1.4000685381624128e-01 -8.5237091056391712e-02 0.0000000000000000e+00  -1.2567825911516611e-01 -1.1314478687134141e-01 0.0000000000000000e+00  -1.0616610128536950e-01 -1.2661230297409121e-01 0.0000000000000000e+00  -8.1505130550296789e-02 -1.3094528043222212e-01 0.0000000000000000e+00  -5.2339470326731856e-02 -1.2578759279111260e-01 0.0000000000000000e+00  -2.6248699636629801e-02 -1.1857513761105039e-01 0.0000000000000000e+00  -1.4366021982754028e-03 -1.1183106542065552e-01 0.0000000000000000e+00  1.8232784657119243e-02 -9.8732451216357375e-02 0.0000000000000000e+00  3.4952542168331949e-02 -8.3161303426114053e-02 0.0000000000000000e+00  4.9980343442063778e-02 -6.7832236347075803e-02 0.0000000000000000e+00  6.1236443468348875e-02 -5.3065445050199882e-02 0.0000000000000000e+00  6.8425550555870504e-02 -3.5028825088127727e-02 0.0000000000000000e+00  7.4669606732530605e-02 -1.9416653686134454e-02 0.0000000000000000e+00  7.5079740925708058e-02 -1.4944474134180685e-03 0.0000000000000000e+00  7.3591004105277413e-02 1.3950487870785054e-02 0.0000000000000000e+00  6.9893030396601552e-02 2.7906027670701317e-02 0.0000000000000000e+00  6.4946428805318146e-02 4.0826445011398628e-02 0.0000000000000000e+00  5.5747118329158137e-02 5.1505764240450252e-02 0.0000000000000000e+00  4.6424266728265280e-02 5.9690696092477229e-02 0.0000000000000000e+00  3.6213467184180954e-02 6.9103609744168251e-02 0.0000000000000000e+00  2.1665960233046178e-02 7.2555442664826067e-02 0.0000000000000000e+00  9.5938864912301480e-03 7.2365215331785415e-02 0.0000000000000000e+00  -3.0420496451248084e-03 7.1578774016704275e-02 0.0000000000000000e+00  -1.7027064515757594e-02 7.3657408287331735e-02 0.0000000000000000e+00  -3.2275801391293164e-02 7.3133981819591340e-02 0.0000000000000000e+00  -4.2256237110872161e-02 6.5491349642833374e-02 0.0000000000000000e+00  -5.1936488084617684e-02 5.7985133373300218e-02 0.0000000000000000e+00  -6.3170369565592605e-02 4.5007535533560565e-02 0.0000000000000000e+00  -6.8875515017228869e-02 3.3240341567934518e-02 0.0000000000000000e+00  -7.4594754758529197e-02 1.8005151088483700e-02 0.0000000000000000e+00  -7.5845337027313664e-02 1.9737624465409852e-03 0.0000000000000000e+00  -7.5712963637188158e-02 -1.7324585308966366e-02 0.0000000000000000e+00  -6.9812699221105140e-02 -3.1281586865774189e-02 0.0000000000000000e+00  -6.3016583848962707e-02 -4.4328346400078586e-02 0.0000000000000000e+00  -5.5341892381372708e-02 -5.9512441028017823e-02 0.0000000000000000e+00  -4.0880893382848026e-02 -7.6212142778653624e-02 0.0000000000000000e+00  -1.2000794748711786e-01 5.8039504296228785e-03 0.0000000000000000e+00  -1.1996354622258273e-01 -5.8071367112593232e-03 0.0000000000000000e+00  -1.1887036332308258e-01 -1.7377376831658527e-02 0.0000000000000000e+00  -1.1664205639933779e-01 -2.8751182454749013e-02 0.0000000000000000e+00  -1.1332291512669143e-01 -3.9875562904023908e-02 0.0000000000000000e+00  -1.0894825180455357e-01 -5.0619508959102978e-02 0.0000000000000000e+00  -1.0356975920204105e-01 -6.0914904157040567e-02 0.0000000000000000e+00  -9.7191222650016215e-02 -7.0614077515151169e-02 0.0000000000000000e+00  -8.9938211777905133e-02 -7.9667102730023726e-02 0.0000000000000000e+00  -8.1798634886691632e-02 -8.7946692167972393e-02 0.0000000000000000e+00  -7.2949100881365858e-02 -9.5475222242629054e-02 0.0000000000000000e+00  -6.3412119367428355e-02 -1.0206217897632093e-01 0.0000000000000000e+00  -5.3246045167317541e-02 -1.0771878522408684e-01 0.0000000000000000e+00  -4.2623844187223300e-02 -1.1234303656339187e-01 0.0000000000000000e+00  -3.1553501152564924e-02 -1.1590781083689250e-01 0.0000000000000000e+00  -2.0204063643697080e-02 -1.1845165443117520e-01 0.0000000000000000e+00  -8.7086535241633813e-03 -1.1984620499296648e-01 0.0000000000000000e+00  2.8884202004120871e-03 -1.2012822866921176e-01 0.0000000000000000e+00  1.4484208311470861e-02 -1.1924991304662733e-01 0.0000000000000000e+00  2.5932802594679574e-02 -1.1732428765042024e-01 0.0000000000000000e+00  3.7132219075148895e-02 -1.1427870975020683e-01 0.0000000000000000e+00  4.7978235874874292e-02 -1.1012305042654653e-01 0.0000000000000000e+00  5.8376689308799391e-02 -1.0497919199871522e-01 0.0000000000000000e+00  6.8232174818825930e-02 -9.8856054225087392e-02 0.0000000000000000e+00  7.7490494359211029e-02 -9.1820170351502972e-02 0.0000000000000000e+00  8.5985903696013097e-02 -8.3929050948005443e-02 0.0000000000000000e+00  9.3676986199203283e-02 -7.5226431851185618e-02 0.0000000000000000e+00  1.0048856786284406e-01 -6.5847709614186234e-02 0.0000000000000000e+00  1.0637395599360648e-01 -5.5827141812286533e-02 0.0000000000000000e+00  1.1126356195756648e-01 -4.5301815098679275e-02 0.0000000000000000e+00  1.1511315845311484e-01 -3.4365234933914031e-02 0.0000000000000000e+00  1.1786320413053682e-01 -2.3078960766960196e-02 0.0000000000000000e+00  1.1956951588726057e-01 -1.1594958390651481e-02 0.0000000000000000e+00  1.2013516043715700e-01 -2.7031053907552403e-06 0.0000000000000000e+00  1.1953916273628139e-01 1.1591513384874278e-02 0.0000000000000000e+00  1.1786898774072194e-01 2.3069980749707161e-02 0.0000000000000000e+00  1.1509561107763353e-01 3.4338268485067013e-02 0.0000000000000000e+00  1.1127382354367960e-01 4.5315076052991905e-02 0.0000000000000000e+00  1.0635933081854709e-01 5.5821423735256885e-02 0.0000000000000000e+00  1.0047531947412268e-01 6.5821696614117894e-02 0.0000000000000000e+00  9.3692932303981236e-02 7.5227404243993434e-02 0.0000000000000000e+00  8.5974464563085357e-02 8.3937573338342911e-02 0.0000000000000000e+00  7.7490067018959399e-02 9.1836608146267887e-02 0.0000000000000000e+00  6.8256978518869443e-02 9.8893835091255503e-02 0.0000000000000000e+00  5.8410815609817451e-02 1.0500841767625968e-01 0.0000000000000000e+00  4.7979174454495399e-02 1.1017170600749612e-01 0.0000000000000000e+00  3.7122364574993370e-02 1.1425169011257770e-01 0.0000000000000000e+00  2.5921382223879904e-02 1.1730019044177989e-01 0.0000000000000000e+00  1.4482839687475787e-02 1.1925525744609600e-01 0.0000000000000000e+00  2.9043458244782205e-03 1.2009746063900639e-01 0.0000000000000000e+00  -8.7179333814051893e-03 1.1985430831132439e-01 0.0000000000000000e+00  -2.0227372385564532e-02 1.1841884300383389e-01 0.0000000000000000e+00  -3.1560950930451560e-02 1.1591010541938356e-01 0.0000000000000000e+00  -4.2610305194558155e-02 1.1236000583748973e-01 0.0000000000000000e+00  -5.3255475889718476e-02 1.0771603316656493e-01 0.0000000000000000e+00  -6.3413169669648703e-02 1.0208565607738151e-01 0.0000000000000000e+00  -7.2954911738703221e-02 9.5475214830254937e-02 0.0000000000000000e+00  -8.1836476071102379e-02 8.7980586747802444e-02 0.0000000000000000e+00  -8.9945262601904719e-02 7.9665538914695744e-02 0.0000000000000000e+00  -9.7180357369453421e-02 7.0591705552054032e-02 0.0000000000000000e+00  -1.0354839804438722e-01 6.0881064981794381e-02 0.0000000000000000e+00  -1.0897047545540259e-01 5.0609791407236135e-02 0.0000000000000000e+00  -1.1333730659376165e-01 3.9878646389076872e-02 0.0000000000000000e+00  -1.1662211113987653e-01 2.8739708741413770e-02 0.0000000000000000e+00  -1.1887988385582669e-01 1.7334479790240016e-02 0.0000000000000000e+00  -4.1319408199851331e-04 1.7114779941080685e-01 0.0000000000000000e+00  2.4191606970224875e-04 -7.7931543315680987e-02 0.0000000000000000e+00  2.1305591110103193e-02 -7.9303480515892102e-02 0.0000000000000000e+00  -2.4238004987226017e-02 -8.0449419408306758e-02 0.0000000000000000e+00  4.0307838042593441e-02 -6.4817149601662252e-02 0.0000000000000000e+00  -4.0157398918860616e-02 -6.2103820795317864e-02 0.0000000000000000e+00  3.6522253129024823e-02 -6.2246743975400518e-02 0.0000000000000000e+00  -3.8301971555122667e-02 -6.3146810120050204e-02 0.0000000000000000e+00  -6.4755505485262488e-02 7.3935741173295405e-02 0.0000000000000000e+00  8.2650140062792699e-02 5.7769317543337757e-02 0.0000000000000000e+00  7.4055501070760213e-02 -6.5073637402453241e-02 0.0000000000000000e+00  3.8239213028483329e-03 9.2944357966709842e-02 0.0000000000000000e+00  -8.8447121506879944e-02 -5.4863645148706619e-02 0.0000000000000000e+00  -1.0164685114733941e-01 2.3409122297072545e-02 0.0000000000000000e+00  1.0705596470080041e-01 1.2247138352859792e-03 0.0000000000000000e+00  -4.5326777240320686e-02 7.9199054798771873e-02 0.0000000000000000e+00  4.2579840079812123e-02 8.0697886531844024e-02 0.0000000000000000e+00  1.4077232576637472e-02 1.5485123737084774e-01 0.0000000000000000e+00  -3.6057328019045119e-02 1.1227830192001087e-01 0.0000000000000000e+00  3.7861681605308575e-02 1.0954931062065927e-01 0.0000000000000000e+00  8.8370150750728876e-02 -5.0497165807045628e-02 0.0000000000000000e+00  -1.1170103029957276e-01 -8.7833268122860467e-03 0.0000000000000000e+00  -7.9307328790021350e-02 -5.8157722461507751e-02 0.0000000000000000e+00  -1.6959174719215757e-02 1.4846970234771040e-01 0.0000000000000000e+00  4.4943343771651843e-02 7.2434766483077492e-02 0.0000000000000000e+00  5.8140340291119141e-02 9.4257756184636748e-02 0.0000000000000000e+00  1.8201208465131655e-02 -1.0278512252887755e-01 0.0000000000000000e+00  -2.2084624027370749e-02 -1.0259552310838657e-01 0.0000000000000000e+00  7.6125013747446263e-02 -5.9321708824799493e-02 0.0000000000000000e+00  5.8818589687311316e-02 -8.7235278680098088e-02 0.0000000000000000e+00  -6.2928266450869380e-02 -8.3625063715556155e-02 0.0000000000000000e+00  -7.4175744857173195e-02 -5.6607058711926242e-02 0.0000000000000000e+00  1.1629889501236267e-01 5.4449038377530184e-07 0.0000000000000000e+00  1.1081649000287082e-01 -2.6363047491569487e-02 0.0000000000000000e+00  -3.1721933151383455e-02 1.0303812381172610e-01 0.0000000000000000e+00  -8.8531164689999428e-02 7.0095324984295743e-02 0.0000000000000000e+00  1.0232397174981038e-01 5.1668763957226589e-02 0.0000000000000000e+00  8.9897949830209198e-02 -5.1348831801451937e-02 0.0000000000000000e+00  -3.0523958071234383e-02 -8.9096889888821362e-02 0.0000000000000000e+00  1.3055638386139982e-02 -8.9330617561153527e-02 0.0000000000000000e+00  -8.2895542349458617e-02 -5.3193631352587437e-02 0.0000000000000000e+00  2.8345407713353820e-02 1.0721143481620958e-01 0.0000000000000000e+00  -3.0153498186540562e-02 7.5790426793378690e-02 0.0000000000000000e+00  -2.1882417450709395e-02 -6.8999378891374474e-02 0.0000000000000000e+00  2.0727004326517549e-02 -7.1159237637841974e-02 0.0000000000000000e+00  1.4376952403847594e-02 -5.0803458086621962e-02 0.0000000000000000e+00  -1.1376122023934428e-02 -4.4635624798744125e-02 0.0000000000000000e+00  2.4525250265691771e-03 1.0450761825474444e-01 0.0000000000000000e+00  -1.4402453905782056e-02 -6.5822442110902046e-02 0.0000000000000000e+00  -6.2115959941924030e-02 5.1650512852914492e-02 0.0000000000000000e+00  1.2720482004450672e-02 3.6726010758133310e-02 0.0000000000000000e+00  1.4562189420809996e-02 -6.8296745327721509e-02 0.0000000000000000e+00  -8.2172778118304257e-02 3.1571424301517000e-02 0.0000000000000000e+00  9.1564103987570353e-02 1.4123578402962857e-02 0.0000000000000000e+00  6.3752576690780105e-02 4.6923311143698875e-02 0.0000000000000000e+00  -1.1646079726657928e-01 -1.0727063071601360e-02 0.0000000000000000e+00  -1.0830205257058202e-01 -3.3874275903778166e-02 0.0000000000000000e+00  -9.2427760101407561e-02 -1.7372505606572157e-02 0.0000000000000000e+00  -1.1232203166673888e-01 3.3293753206368071e-02 0.0000000000000000e+00  -9.3902329424046346e-02 -4.9674747142109524e-02 0.0000000000000000e+00  9.2620444151455400e-02 -5.1155390282045902e-02 0.0000000000000000e+00  -1.6530117440601920e-02 3.6693683780989778e-02 0.0000000000000000e+00  -2.2922453315622066e-03 1.3934190221946127e-01 0.0000000000000000e+00  -5.6873234651349143e-03 -1.1029342769665886e-01 0.0000000000000000e+00  4.2969391572394905e-02 -1.0369876084020803e-01 0.0000000000000000e+00  -5.1840605849969232e-02 -9.9140437511630972e-02 0.0000000000000000e+00  -3.3432648133816991e-03 1.1390393352797065e-01 0.0000000000000000e+00  8.1166656548476671e-02 -7.2445429936527833e-02 0.0000000000000000e+00  -7.9936460476636426e-02 -7.4544328609612923e-02 0.0000000000000000e+00  8.7467172732234061e-02 -3.4174506412783613e-02 0.0000000000000000e+00  -3.4594065470806165e-02 -9.3645164688531776e-02 0.0000000000000000e+00  1.2975007219715048e-02 -9.5423462861462888e-02 0.0000000000000000e+00  -5.6941056515738796e-02 5.6261673998774638e-02 0.0000000000000000e+00  1.1035804810543531e-01 -3.1276257556266895e-02 0.0000000000000000e+00  8.5990536908190113e-02 7.8594745368899932e-02 0.0000000000000000e+00  -6.8314083315384147e-02 9.3165286585672261e-02 0.0000000000000000e+00  7.2693077478699422e-02 4.0587829185314873e-02 0.0000000000000000e+00  3.3345955308482625e-02 -9.2739280396514440e-02 0.0000000000000000e+00  1.3344110886804579e-02 7.3122610077231892e-02 0.0000000000000000e+00  -1.0209049419123102e-01 5.8157346302026833e-02 0.0000000000000000e+00  1.1489846941922199e-01 2.9170976798456639e-02 0.0000000000000000e+00  4.6820535834324450e-03 -2.3200112393532969e-02 0.0000000000000000e+00  6.9442466567990239e-04 1.4150639312501415e-01 0.0000000000000000e+00  -5.5393691388946162e-02 -7.9605183569049845e-02 0.0000000000000000e+00  4.9786064823854823e-02 -7.9046142039038439e-02 0.0000000000000000e+00  -2.9556314694130364e-02 -7.2251514353125587e-02 0.0000000000000000e+00  9.0767596419195726e-02 -5.5314166567701613e-02 0.0000000000000000e+00  -2.6229582687723584e-02 -2.8053935448999791e-02 0.0000000000000000e+00  2.2699759105332350e-02 -2.7418398600068856e-02 0.0000000000000000e+00  4.2031120641672318e-02 8.3381324793214986e-02 0.0000000000000000e+00  1.7318231441458855e-02 1.5815663591608078e-01 0.0000000000000000e+00  3.3741439417483525e-02 1.3482953665346545e-01 0.0000000000000000e+00  -3.4462941763347066e-04 1.8403220870406228e-01 0.0000000000000000e+00  -2.0900617384523885e-02 1.5628646685651132e-01 0.0000000000000000e+00  -3.0527064756068954e-02 1.3997887974762063e-01 0.0000000000000000e+00  5.5989423280578807e-02 1.0125822805131635e-01 0.0000000000000000e+00  -4.0289031444198334e-02 8.6986376646584540e-02 0.0000000000000000e+00  -9.2890293723899189e-02 -5.3079454519266892e-02 0.0000000000000000e+00  -8.1100653437919765e-02 5.8921632764679030e-02 0.0000000000000000e+00  -8.9915363947756677e-02 -6.6452442282664601e-02 0.0000000000000000e+00  3.7689313840836139e-02 -5.4669181672376145e-02 0.0000000000000000e+00  6.1619715640376889e-02 -7.3302432487023117e-02 0.0000000000000000e+00  -1.1652176790199106e-01 2.7185753172652052e-02 0.0000000000000000e+00  -1.0698626975020080e-01 1.6013263673806042e-03 0.0000000000000000e+00  1.0283912089278606e-02 -7.7620031326795624e-02 0.0000000000000000e+00  -1.0939262096903307e-01 -3.5510369990396584e-02 0.0000000000000000e+00  -5.2692003203565138e-02 9.6726589913548738e-02 0.0000000000000000e+00  -1.0147948702152236e-01 -3.6653372701685685e-02 0.0000000000000000e+00  -3.5673337266312936e-02 -4.5628772949816605e-02 0.0000000000000000e+00  -3.8935871705191256e-02 -1.0907622896040900e-01 0.0000000000000000e+00  5.1268458938550719e-02 -6.5790720124698429e-02 0.0000000000000000e+00  8.4536792153830746e-03 -1.1487513905447740e-01 0.0000000000000000e+00  7.6546147676290408e-02 -8.6058676457220915e-02 0.0000000000000000e+00  -1.1726034414874197e-02 -7.9697328179867549e-02 0.0000000000000000e+00  1.0727395346562905e-01 5.2591565965657207e-02 0.0000000000000000e+00  -6.3154887829492620e-02 -6.1656112924665253e-02 0.0000000000000000e+00  -7.8328061988091918e-02 -6.1858712206829002e-02 0.0000000000000000e+00  5.8891845015290052e-02 6.5761143723512216e-02 0.0000000000000000e+00  8.5769152886014818e-02 -5.6963585676400121e-02 0.0000000000000000e+00  1.0239440457249163e-01 -2.4818042260469034e-02 0.0000000000000000e+00  -6.2535483278155141e-02 6.2648080394347994e-02 0.0000000000000000e+00  6.3142161073576619e-02 7.6415399356066976e-02 0.0000000000000000e+00  6.9112128139731971e-02 9.5396386252987561e-02 0.0000000000000000e+00  -5.6737022642513658e-02 1.3342021313572181e-02 0.0000000000000000e+00  1.1924183793615237e-01 4.5722694726880462e-03 0.0000000000000000e+00  5.4825733430458164e-02 -1.0745218713421104e-02 0.0000000000000000e+00  -1.1841692641036952e-01 -9.7386857080474891e-03 0.0000000000000000e+00  3.4647844280766893e-02 -7.3002102381026224e-02 0.0000000000000000e+00  4.8075941377449055e-02 5.7575772752292476e-02 0.0000000000000000e+00  -4.7464757793509164e-02 1.0990574439363436e-01 0.0000000000000000e+00  -3.2869269377645415e-02 -7.4888536038740544e-02 0.0000000000000000e+00  3.9609625192008203e-02 1.1074609945783279e-01 0.0000000000000000e+00  5.5576954419559996e-02 -5.6190743949878247e-02 0.0000000000000000e+00  -9.1229093314052392e-02 7.3874140624401383e-03 0.0000000000000000e+00  -8.2882538029507888e-02 5.5418346749845533e-02 0.0000000000000000e+00  2.4550395958629855e-02 8.4310409217743812e-02 0.0000000000000000e+00  6.4301465931967464e-02 7.2608262986524355e-02 0.0000000000000000e+00  3.6937397295095341e-02 -5.8030753295520328e-02 0.0000000000000000e+00  -3.2816213025480004e-02 -7.9074442473627285e-02 0.0000000000000000e+00  4.1421184902281714e-02 9.0575498947162505e-02 0.0000000000000000e+00  -3.2062236897640060e-02 1.1353818984244367e-01 0.0000000000000000e+00  1.3911834428008137e-02 -7.8127463063832281e-02 0.0000000000000000e+00  -9.5218717616429339e-03 7.0394586314583549e-02 0.0000000000000000e+00  9.6107658827027861e-02 3.8162053476936214e-02 0.0000000000000000e+00  8.3947334625808057e-02 -8.4822724187492479e-03 0.0000000000000000e+00  1.0726888342716671e-01 -4.1809597866234727e-02 0.0000000000000000e+00  3.1115450145820990e-02 -1.1183577548073609e-01 0.0000000000000000e+00  5.6351892388780377e-02 -1.0290628949771266e-01 0.0000000000000000e+00  5.7788986688960840e-02 -6.9877916941779097e-02 0.0000000000000000e+00  2.4641074593708328e-04 -5.5306542064439725e-02 0.0000000000000000e+00  1.1135557456863964e-02 1.1728116788600981e-01 0.0000000000000000e+00  -3.5884634497432163e-02 -5.7383575610408452e-02 0.0000000000000000e+00  -2.9339445003809948e-02 -5.9409011666352492e-02 0.0000000000000000e+00  4.0704314622541544e-03 -9.9412591468082012e-02 0.0000000000000000e+00  1.1158995630842365e-01 -3.1875010955629446e-02 0.0000000000000000e+00  1.1834772366116747e-01 -9.7406541994466949e-03 0.0000000000000000e+00  9.0112298370315383e-02 -5.1995957074837069e-02 0.0000000000000000e