<?xml version="1.0"?>
<VTKFile type="UnstructuredGrid"  version="0.1"  >
<UnstructuredGrid>
<Piece  NumberOfPoints="829" NumberOfCells="1578">
<Points>
<DataArray  type="Float64"  NumberOfComponents="3"  format="ascii">-0.9710462941399614 -0.005006799759364923 0  -0.9652737224409318 -0.1098576736534581 0  -0.9475041250234629 -0.213329355821028 0  -0.9178442589713717 -0.3139315924654276 0  -0.8769178158294194 -0.4105784216940285 0  -0.8255003992752377 -0.5015832238073447 0  -0.7649217484846017 -0.5856488293269051 0  -0.69634959192332 -0.6617589027610282 0  -0.620661626355964 -0.729498025080264 0  -0.5387378574332723 -0.7885460029501367 0  -0.4509979512789231 -0.8386603867330824 0  -0.3589627562839485 -0.8793959128116254 0  -0.2630679175036431 -0.9108536208839823 0  -0.1646368946241048 -0.9323806169648604 0  -0.06472363384341975 -0.943973792490601 0  0.03579161162642861 -0.9456403360443945 0  0.136130658554279 -0.9369179617239772 0  0.2351944345651078 -0.9181858692522851 0  0.3317888671223722 -0.8894528501296277 0  0.425159731576277 -0.8514083342507983 0  0.5140452275896563 -0.804055705713792 0  0.5977333857070044 -0.7476046407165843 0  0.6752749938285102 -0.6826063504072389 0  0.7459913796734501 -0.6089021798802772 0  0.8091322411714006 -0.5270494078326146 0  0.8632807728775806 -0.4378405980550152 0  0.9072539331561476 -0.3426066423559384 0  0.9400679848102276 -0.2429042362436998 0  0.961187226728714 -0.1401859474207939 0  0.9704215882273992 -0.03561594275551291 0  0.9676148808181457 0.06930573057564211 0  0.9530060909623473 0.1729856452962014 0  0.9267838011943407 0.2742536718734141 0  0.8892878424263968 0.3722516522771241 0  0.8413205165857163 0.4652465384285333 0  0.783198638585108 0.5523772609168671 0  0.715998145353738 0.632544904791142 0  0.6403523744938289 0.7050485976738595 0  0.5572794141458033 0.7689886663354981 0  0.467842371954985 0.8237030377316011 0  0.3730334661326771 0.8686185262397492 0  0.2741517966933884 0.9031411409803984 0  0.1719919593574329 0.9269023059216778 0  0.06766998125265457 0.9397254126338831 0  -0.03716570573792641 0.9413044092232384 0  -0.1417217414540218 0.9315145240237602 0  -0.2445152815299359 0.9108172905205778 0  -0.3444797094503391 0.8793698020990327 0  -0.4405763193971975 0.8375507651585308 0  -0.5317748153851406 0.7856474151018294 0  -0.6167297053817757 0.7243544567061326 0  -0.6944720598521096 0.6545598460182094 0  -0.7643655262277746 0.5766153266268967 0  -0.8253930896584077 0.4913206816723553 0  -0.8766198144864619 0.3997530767335883 0  -0.9171531550593059 0.303315086189285 0  -0.9467763419762132 0.2026855269428225 0  -0.9648264915216397 0.0995847401563183 0  2.029079124521833 4.684544414027466e-05 0  2.019310446264973 0.1988841392333306 0  1.990100321480852 0.3958076769028515 0  1.941694163385623 0.5890562795367301 0  1.87462928367115 0.7764899835036433 0  1.789490625140201 0.9565029493666993 0  1.687120313463015 1.127297324652425 0  1.568502375875028 1.287235877087809 0  1.434777891744233 1.43477779290859 0  1.287236774458632 1.568501839794105 0  1.127297972249883 1.687120448987615 0  0.9565034178659163 1.78949118437927 0  0.7764962131329226 1.87462795358286 0  0.5890126034977713 1.941711178759681 0  0.3958483273455977 1.990095406220611 0  0.1989329973745537 2.019305192462757 0  -4.839638503288183e-05 2.029080545333318 0  -0.1988781012100451 2.019312804969634 0  -0.3958613443926672 1.990093003925642 0  -0.588964539038363 1.941723004702404 0  -0.7765402475410547 1.874607391546384 0  -0.9564976757292208 1.78949371323159 0  -1.127298910094539 1.687119970586099 0  -1.287236455850722 1.568502160873106 0  -1.434778285680101 1.43477741385867 0  -1.568502131440474 1.287236010107401 0  -1.68712014912671 1.127297920466639 0  -1.789493406542097 0.9564966214020011 0  -1.87460652129099 0.7765399420444533 0  -1.941701965489939 0.5890081958994932 0  -1.99010190046206 0.3957968020230377 0  -2.019302532617878 0.1989413916464993 0  -2.029072489542005 -9.102553283552082e-08 0  -2.019303827833959 -0.1989325487267549 0  -1.990092229968578 -0.3958541053078695 0  -1.94172122785277 -0.5889653155787433 0  -1.874606025908658 -0.7765396868981184 0  -1.789492471297528 -0.9564968697277502 0  -1.687119912673761 -1.127297515697393 0  -1.568497127132307 -1.287240161738977 0  -1.434810244699088 -1.434741514218567 0  -1.287198165154019 -1.568529873947303 0  -1.127297458608702 -1.687119465341338 0  -0.9565432291952614 -1.789467302618474 0  -0.7764501683054189 -1.874644150864849 0  -0.5890183776295069 -1.941708398074207 0  -0.3958475152456926 -1.990095615970474 0  -0.1989324711071867 -2.019304847501944 0  5.700697517301228e-05 -2.029079735846283 0  0.1988282508440132 -2.019314659435493 0  0.395901388894098 -1.990082711664981 0  0.5890057096504318 -1.941712217062807 0  0.7764970192449304 -1.874627547121136 0  0.9565028626213519 -1.78949076146609 0  1.127297470306408 -1.687120237573384 0  1.28723640149542 -1.56850155528673 0  1.434777082428095 -1.434778043560252 0  1.568504989296099 -1.28723111373531 0  1.68709114956849 -1.127335573392287 0  1.789510548333798 -0.9564588376813005 0  1.874623935711971 -0.776501171536868 0  1.941709923872995 -0.5890116811986952 0  1.990093675884988 -0.3958481693203493 0  2.01930365568069 -0.1989325437121208 0  0.002066181154163716 0.003746492610919196 0  0.5031430243090886 1.400155491276517 0  -0.07316481570762029 1.486763799375396 0  -0.6383962003006208 1.34602025990189 0  -0.3352309384685084 -1.451455994216573 0  -1.109335485873649 1.001544895746095 0  1.005133243603408 1.105186038395847 0  0.2902820903397973 -1.459667747103257 0  -0.890715542543013 -1.202769395478813 0  0.8651257876699086 -1.217479525165906 0  1.356320321591497 0.6375570060546143 0  -1.414124736025365 0.5020863676535987 0  -1.499265048641862 -0.0793694961494779 0  1.286313313533376 -0.7732440068418411 0  1.500748080231386 0.06999930579308451 0  -1.286846735315991 -0.7736188048595356 0  -0.4809176611421255 -0.07546536524344748 0  0.4873058072655185 -0.03984728547484539 0  -0.2966949570224457 0.3736827823737379 0  0.2783513386706276 0.3877911236656723 0  0.2016110868623507 -0.4267994581736952 0  1.365425639664269 -0.3458512962662668 0  -0.2386912237631339 -0.4443727390655764 0  -1.289003478182664 -0.3966018449745032 0  -1.640631534883958 -0.3966272810065123 0  0.2466272819090896 1.659762457291491 0  -0.4084404934754763 1.627885929714239 0  0.8646652436702683 1.439784569345629 0  -1.001969501808701 1.348084430948616 0  -0.7182650945386285 -1.518967328054053 0  1.351435970929802 0.9993425409108649 0  -1.663251744341459 0.2440000281500337 0  -1.443388376883227 0.862182608156427 0  1.223810800553181 -1.134124763651051 0  -1.245660159412527 -1.129435574815413 0  1.631957574474815 0.4059666666015331 0  -0.08303597337913968 -1.691260122404024 0  1.582008200800753 -0.6058124926018643 0  1.688916063949376 -0.2525920080359861 0  0.7249074239386066 -1.533038852056287 0  0.01127205588622137 0.6040757282606369 0  -0.02125554680648319 -1.371607273199297 0  0.5145903627176307 -1.192352461593077 0  -0.5993960415448472 0.2283936254116735 0  0.5251123250190365 -0.3651433853995361 0  -0.7691875595805042 1.029577824777416 0  -0.5478587665402633 -1.169996368610596 0  0.9787148249731723 -0.9054221139481246 0  0.1885273116542693 1.26675345717601 0  0.5829608903682163 0.2687427035651008 0  1.262886449719369 0.3098215419183032 0  0.6801785713885581 1.070685183211192 0  -0.2546406991150144 1.226446890057049 0  -1.291533123031498 0.1854623914613625 0  0.9855555785448024 0.7910623105181463 0  -0.970903968790554 -0.8287256456973925 0  -1.116639273785327 0.6619137389031592 0  -1.581586208172534 -0.748918126234651 0  -0.558459206403452 -0.3663612300401294 0  -0.01063450920452623 -0.6418825396415572 0  -0.007123530790225322 0.299274058943571 0  0.2007789976591841 -1.732729550320878 0  0.4803683737617241 -1.67885272356948 0  -0.4293324751239725 -1.714191535642985 0  -0.5033970495154293 1.105496986939663 0  1.053824444103401 -1.42080827073695 0  0.5217620402282779 1.675207755152711 0  -0.1604419382507038 1.747634970424478 0  -0.8184675173077607 1.553008066660984 0  1.101499578831208 0.5414112549698568 0  1.122643684686771 1.351773481750065 0  -0.7411807409347536 -0.9744113455535632 0  -0.2300924235701084 -1.199139473967217 0  -1.354222445759044 1.12018967750466 0  0.1918166781930639 -1.205134689867239 0  1.25376281790284 -0.08231008089633975 0  1.138458545583533 -0.5265252435170498 0  -0.9827027627052652 -1.458217604236862 0  0.7094371800294262 -0.9952069907935915 0  -1.087766186457648 -0.5834670818154188 0  1.555235807073865 0.8221686754480929 0  -1.670564976191203 0.5955038811490051 0  -1.771834710785784 -0.08886800793818241 0  1.537502255842324 -0.8682077308197418 0  -1.233318744189456 -0.1346175986415875 0  1.761276012998621 0.005696877036544336 0  0.4192492027031491 1.130687579198328 0  -0.2530311011580899 0.6330876541873053 0  -0.02500805235701446 -0.2697998878191626 0  -1.465802631716306 -0.9848584431825338 0  -1.154768033151245 0.4049162145362702 0  -0.9241861567353092 0.8276580288586949 0  -0.7194516088273138 0.003704541932353273 0  -0.227260753308674 -0.1129121768769537 0  0.7148849711160282 -0.1407066308952783 0  -0.2119033259713455 0.1378801560218549 0  0.2645418403421073 0.6403080257005958 0  -0.5282204769628283 0.4690947284648625 0  0.3982244759241421 -0.5795187014814687 0  0.2335674984659335 -0.1509325740895569 0  0.2636453541939074 0.1179337942354276 0  0.4981895171759536 0.5029742137060909 0  -0.2409982439694486 -0.6775534044851971 0  -1.418868672445062 -0.5857956309947119 0  -0.4361199591316396 -0.5605834819180489 0  0.08963271373182181 1.822307422191262 0  -0.6152724484279311 1.717779830481569 0  -0.03479956130617822 1.267145152932575 0  0.7520846134645868 1.643754615257016 0  -1.226630844287163 1.351492097600093 0  1.353614290024556 1.224966258229419 0  -1.226300785817186 -1.352809794311847 0  1.690740626521599 0.6326769838359103 0  1.790551977208446 0.236807313476296 0  0.5192022424312255 -1.424530622683306 0  1.1558
[...]
<PointData  Vectors="f_1449-0"> 
<DataArray  type="Float64"  Name="f_1449-0"  NumberOfComponents="3" format="ascii">-2.4246953238973881e-02 -1.0550684359774988e-01 0.0000000000000000e+00  -2.6570376748044819e-03 -1.1969776897911540e-01 0.0000000000000000e+00  2.3605037600402036e-02 -1.3052781176972833e-01 0.0000000000000000e+00  4.8502979933636399e-02 -1.3641766260623714e-01 0.0000000000000000e+00  7.6070331703983460e-02 -1.4074441853906663e-01 0.0000000000000000e+00  1.0241881882468387e-01 -1.3672698319797086e-01 0.0000000000000000e+00  1.2208292524921897e-01 -1.2190911304367778e-01 0.0000000000000000e+00  1.3306627630645762e-01 -9.7464962513161585e-02 0.0000000000000000e+00  1.3430644685365337e-01 -6.8674088685565876e-02 0.0000000000000000e+00  1.2424107389275278e-01 -3.9466184206589740e-02 0.0000000000000000e+00  1.1155490642625449e-01 -1.6054722672318795e-02 0.0000000000000000e+00  9.1422539284336274e-02 6.2092832802241342e-03 0.0000000000000000e+00  7.0975495418368784e-02 2.3165463863014407e-02 0.0000000000000000e+00  4.7269516630340853e-02 3.7016543434118400e-02 0.0000000000000000e+00  1.9481565401107615e-02 4.5349017377299392e-02 0.0000000000000000e+00  -1.1262701612776153e-02 4.7926021697790762e-02 0.0000000000000000e+00  -3.6885310725879909e-02 4.1281285748647797e-02 0.0000000000000000e+00  -6.1090589170160144e-02 2.9792930820311536e-02 0.0000000000000000e+00  -8.3141154686416155e-02 1.3374665414593185e-02 0.0000000000000000e+00  -1.0225435555976031e-01 -7.0047753561289826e-03 0.0000000000000000e+00  -1.1927830186625338e-01 -3.1647731580080669e-02 0.0000000000000000e+00  -1.3168445562789782e-01 -6.0806909203510631e-02 0.0000000000000000e+00  -1.3647626417109096e-01 -9.1167675109451340e-02 0.0000000000000000e+00  -1.2888434537178564e-01 -1.1751875591275092e-01 0.0000000000000000e+00  -1.1222005196756578e-01 -1.3515674020338189e-01 0.0000000000000000e+00  -8.7519999494135817e-02 -1.4166576566946701e-01 0.0000000000000000e+00  -5.8711560251835514e-02 -1.3889741641638395e-01 0.0000000000000000e+00  -2.9756772487148992e-02 -1.3378596407816556e-01 0.0000000000000000e+00  -3.6658811688063887e-03 -1.2554898269762721e-01 0.0000000000000000e+00  1.8443379921213119e-02 -1.1117223343689409e-01 0.0000000000000000e+00  3.7189972065499240e-02 -9.5122585662720305e-02 0.0000000000000000e+00  5.2913559067837707e-02 -7.9931051020219190e-02 0.0000000000000000e+00  6.6578730023866661e-02 -6.4265797080153855e-02 0.0000000000000000e+00  7.3565357826190933e-02 -4.2579509188135488e-02 0.0000000000000000e+00  7.9330505964190931e-02 -2.5962580109287821e-02 0.0000000000000000e+00  8.1417080261170852e-02 -8.0008922814669651e-03 0.0000000000000000e+00  8.1487571488533930e-02 7.2803932058244942e-03 0.0000000000000000e+00  7.7284189045468119e-02 2.3419757608121851e-02 0.0000000000000000e+00  6.9384698592266827e-02 3.7886891073037901e-02 0.0000000000000000e+00  6.0105378609299459e-02 4.9743413578870736e-02 0.0000000000000000e+00  4.8115049562632010e-02 5.9690015538357830e-02 0.0000000000000000e+00  3.6953958513954145e-02 6.5830187079743155e-02 0.0000000000000000e+00  2.4165037600559790e-02 6.9984443526691517e-02 0.0000000000000000e+00  7.5586610617764966e-03 7.1616769380443132e-02 0.0000000000000000e+00  -5.0033334740960164e-03 7.4567906718692817e-02 0.0000000000000000e+00  -2.0330414865870609e-02 7.3229394614630863e-02 0.0000000000000000e+00  -3.3445113850416611e-02 6.9306485300424200e-02 0.0000000000000000e+00  -4.5514793130969775e-02 6.2719518129845622e-02 0.0000000000000000e+00  -5.6327930925015535e-02 5.3491615339662915e-02 0.0000000000000000e+00  -6.7618021235018408e-02 4.0866745089106482e-02 0.0000000000000000e+00  -7.4982282237914782e-02 2.7433992617286036e-02 0.0000000000000000e+00  -7.7017562664438710e-02 1.4921663677107420e-02 0.0000000000000000e+00  -7.9214138625225791e-02 -7.9830479875077982e-04 0.0000000000000000e+00  -7.9966962327321936e-02 -2.0193484590200376e-02 0.0000000000000000e+00  -7.6778496504506008e-02 -4.0463749668754039e-02 0.0000000000000000e+00  -6.7397278861323795e-02 -5.6607659134982613e-02 0.0000000000000000e+00  -5.7751302695317940e-02 -7.6368135700833312e-02 0.0000000000000000e+00  -4.2581164569286567e-02 -9.1688875846791099e-02 0.0000000000000000e+00  1.1602515472390489e-01 9.4751863314318605e-04 0.0000000000000000e+00  1.1550376241969106e-01 1.1364544137311519e-02 0.0000000000000000e+00  1.1398546092571568e-01 2.1704386340326148e-02 0.0000000000000000e+00  1.1075616116541417e-01 3.4604338444239893e-02 0.0000000000000000e+00  1.0728541249107515e-01 4.4300322270285346e-02 0.0000000000000000e+00  1.0237686427561503e-01 5.4726910445439113e-02 0.0000000000000000e+00  9.6524749948973740e-02 6.4487094129223890e-02 0.0000000000000000e+00  8.9748482065722099e-02 7.3639432098471749e-02 0.0000000000000000e+00  8.2087653830809459e-02 8.2085545827647557e-02 0.0000000000000000e+00  7.3657633068029485e-02 8.9737608161495674e-02 0.0000000000000000e+00  6.4500365386504985e-02 9.6527383617613663e-02 0.0000000000000000e+00  5.4736676384344818e-02 1.0238797840733314e-01 0.0000000000000000e+00  4.4426029394460109e-02 1.0725869043621696e-01 0.0000000000000000e+00  3.3720760692771093e-02 1.1109949505651348e-01 0.0000000000000000e+00  2.2527107793672133e-02 1.1388512907032126e-01 0.0000000000000000e+00  1.2352282772659547e-02 1.1539843102085399e-01 0.0000000000000000e+00  -9.7835731174185521e-04 1.1605378231773775e-01 0.0000000000000000e+00  -1.1243245332482499e-02 1.1555131162568859e-01 0.0000000000000000e+00  -2.2788985418391430e-02 1.1383664791598194e-01 0.0000000000000000e+00  -3.2749668815019208e-02 1.1133906866189323e-01 0.0000000000000000e+00  -4.5316368542338052e-02 1.0684356285170231e-01 0.0000000000000000e+00  -5.4621029234037388e-02 1.0243870304423536e-01 0.0000000000000000e+00  -6.4518798018477930e-02 9.6517977502794089e-02 0.0000000000000000e+00  -7.3651252574428977e-02 8.9743949013284266e-02 0.0000000000000000e+00  -8.2095531829771431e-02 8.2078050753380732e-02 0.0000000000000000e+00  -8.9743538117569660e-02 7.3642261176916843e-02 0.0000000000000000e+00  -9.6521730183452045e-02 6.4498925592572559e-02 0.0000000000000000e+00  -1.0243281370801514e-01 5.4599729074061222e-02 0.0000000000000000e+00  -1.0682614722336421e-01 4.5310364071816281e-02 0.0000000000000000e+00  -1.1091606192883292e-01 3.3633298524720003e-02 0.0000000000000000e+00  -1.1401721671707669e-01 2.1485342970007801e-02 0.0000000000000000e+00  -1.1534453635180232e-01 1.2521665196810939e-02 0.0000000000000000e+00  -1.1589326280327458e-01 -1.9693391213015038e-06 0.0000000000000000e+00  -1.1537085042733410e-01 -1.2343801681947634e-02 0.0000000000000000e+00  -1.1382102822801388e-01 -2.2643338337736362e-02 0.0000000000000000e+00  -1.1130366757209563e-01 -3.2764617535476458e-02 0.0000000000000000e+00  -1.0681636602175583e-01 -4.5304901939077630e-02 0.0000000000000000e+00  -1.0241422862336180e-01 -5.4604509210947658e-02 0.0000000000000000e+00  -9.6517068062653463e-02 -6.4490922849368248e-02 0.0000000000000000e+00  -8.9643202310836140e-02 -7.3725859170574254e-02 0.0000000000000000e+00  -8.2742794704800463e-02 -8.1352847828680866e-02 0.0000000000000000e+00  -7.2877514120042855e-02 -9.0305665309352662e-02 0.0000000000000000e+00  -6.4490222494776511e-02 -9.6507700560891599e-02 0.0000000000000000e+00  -5.5542268644708521e-02 -1.0190583985312081e-01 0.0000000000000000e+00  -4.3495847161760567e-02 -1.0758679035580358e-01 0.0000000000000000e+00  -3.3836977180296067e-02 -1.1104355896710150e-01 0.0000000000000000e+00  -2.2511156638831242e-02 -1.1388924713588636e-01 0.0000000000000000e+00  -1.2341597455001884e-02 -1.1539159066776813e-01 0.0000000000000000e+00  1.1518917200578924e-03 -1.1603750848156129e-01 0.0000000000000000e+00  1.0235220586854726e-02 -1.1558985657055761e-01 0.0000000000000000e+00  2.3599722333098174e-02 -1.1362941795480294e-01 0.0000000000000000e+00  3.3582332626993040e-02 -1.1112030920496968e-01 0.0000000000000000e+00  4.4441961348277624e-02 -1.0725058761398670e-01 0.0000000000000000e+00  5.4725743464799394e-02 -1.0237935043090020e-01 0.0000000000000000e+00  6.4490197930066731e-02 -9.6523193004031296e-02 0.0000000000000000e+00  7.3650098421552193e-02 -8.9732038551585458e-02 0.0000000000000000e+00  8.2071766432434662e-02 -8.2090531450568341e-02 0.0000000000000000e+00  8.9801363959657141e-02 -7.3543559116973856e-02 0.0000000000000000e+00  9.5936215422834925e-02 -6.5260951716080248e-02 0.0000000000000000e+00  1.0278070427510200e-01 -5.3835745082533616e-02 0.0000000000000000e+00  1.0717803866520856e-01 -4.4525781484175721e-02 0.0000000000000000e+00  1.1107445542718078e-01 -3.3702197198914763e-02 0.0000000000000000e+00  1.1385044994475692e-01 -2.2523589615871930e-02 0.0000000000000000e+00  1.1536746302660690e-01 -1.2343133523671243e-02 0.0000000000000000e+00  6.5730616851591395e-05 1.7787046503975684e-01 0.0000000000000000e+00  5.4107075379664506e-02 7.5582276031021037e-02 0.0000000000000000e+00  -7.2851473246869844e-03 8.9877657796181232e-02 0.0000000000000000e+00  -6.7861179740554015e-02 6.7586020170350175e-02 0.0000000000000000e+00  -8.0701021356770816e-03 -7.6877716902639087e-02 0.0000000000000000e+00  -1.0289011431173842e-01 1.5473371263687788e-02 0.0000000000000000e+00  9.7608699923720191e-02 3.0721341390006068e-02 0.0000000000000000e+00  6.6186620544997337e-03 -7.5883539346422502e-02 0.0000000000000000e+00  -2.9584140326117673e-02 -7.4363795024578919e-02 0.0000000000000000e+00  2.8247075581410593e-02 -7.5707249338887894e-02 0.0000000000000000e+00  1.0392259532235953e-01 -2.9263558585232160e-02 0.0000000000000000e+00  -9.9154028696117086e-02 -4.2386762680144296e-02 0.0000000000000000e+00  -6.3160336681087184e-02 -7.4356215641422099e-02 0.0000000000000000e+00  3.2546998586593823e-02 -6.3543555484838449e-02 0.0000000000000000e+00  7.4333239353576733e-02 -7.0113017059296900e-02 0.0000000000000000e+00  -3.3210453329557570e-02 -6.4539106143119931e-02 0.0000000000000000e+00  -4.0828915679638263e-02 8.4398717188156336e-02 0.0000000000000000e+00  4.5203474406060776e-02 8.2272707397285635e-02 0.0000000000000000e+00  -4.3149897575855627e-02 1.1089320160090922e-01 0.0000000000000000e+00  4.1133363576071447e-02 1.1259751927534650e-01 0.0000000000000000e+00  -1.5880891455038768e-02 1.6397501758995012e-01 0.0000000000000000e+00  2.2540819024924674e-02 -8.4013799242471460e-02 0.0000000000000000e+00  1.9018610601025086e-02 1.5286401806483335e-01 0.0000000000000000e+00  -3.0189790728576069e-03 -8.9857159365034620e-02 0.0000000000000000e+00  -8.0494919449443939e-02 -5.7019527452326225e-02 0.0000000000000000e+00  2.3861181386387268e-02 1.0220606859830436e-01 0.0000000000000000e+00  -3.8636676714824271e-02 9.8639864505504216e-02 0.0000000000000000e+00  7.9026529062333734e-02 7.4355455585350019e-02 0.0000000000000000e+00  -9.0039501724986357e-02 6.2761370449001000e-02 0.0000000000000000e+00  -4.1021077813807275e-02 -9.2562303543030994e-02 0.0000000000000000e+00  1.1080549172899382e-01 2.3070767437361129e-02 0.0000000000000000e+00  -1.0383915283047745e-01 -3.8856842349261095e-02 0.0000000000000000e+00  -1.1348628366498310e-01 9.1391646470657915e-03 0.0000000000000000e+00  6.6482550066085042e-02 -6.8987690445277541e-02 0.0000000000000000e+00  -6.7895262765733627e-02 -6.8748811400059978e-02 0.0000000000000000e+00  1.0877116360002685e-01 -2.8840614883195944e-02 0.0000000000000000e+00  -4.1905953615535233e-03 -1.0082531894615930e-01 0.0000000000000000e+00  7.6191184073447007e-02 -5.7381750076559032e-02 0.0000000000000000e+00  8.8747625174143419e-02 -5.3597986461987622e-02 0.0000000000000000e+00  4.1902832108175067e-02 -9.3533965212800010e-02 0.0000000000000000e+00  2.1685187488155659e-03 1.0833523340957180e-01 0.0000000000000000e+00  7.7209984525681023e-04 -5.5949737620472680e-02 0.0000000000000000e+00  -1.6511583843296516e-02 -5.7974995256804364e-02 0.0000000000000000e+00  -6.6690261053648461e-02 4.0867336575862341e-02 0.0000000000000000e+00  -2.1904807107878732e-02 4.9591288161902669e-02 0.0000000000000000e+00  -8.3962085140789705e-02 2.7799624979858835e-02 0.0000000000000000e+00  1.8723019689092558e-02 -6.0063527828901918e-02 0.0000000000000000e+00  -8.4315460209627643e-03 -7.4688136377666137e-02 0.0000000000000000e+00  2.2702169249877575e-02 7.1528350475513355e-02 0.0000000000000000e+00  6.8391767422773003e-02 4.5041289921003688e-02 0.0000000000000000e+00  7.1439487339757149e-02 -7.4829911029455368e-02 0.0000000000000000e+00  7.5569080040800027e-02 3.7482262133841114e-02 0.0000000000000000e+00  -3.1261656125831636e-02 6.8982064844850768e-02 0.0000000000000000e+00  -6.0260443303910664e-02 -8.4219161771978857e-02 0.0000000000000000e+00  9.4105586309514683e-02 -1.1299186049527163e-02 0.0000000000000000e+00  2.9039741563098787e-02 -8.0880721538110587e-02 0.0000000000000000e+00  -9.5237577068692292e-02 -3.2550996188930065e-02 0.0000000000000000e+00  -8.3830185658715736e-02 -5.6380644795605561e-02 0.0000000000000000e+00  2.3374825160125373e-02 2.7873844567024193e-02 0.0000000000000000e+00  1.4876925454268967e-03 1.4464056526898250e-01 0.0000000000000000e+00  -7.2015936540661767e-04 1.4516141664423235e-01 0.0000000000000000e+00  1.1655578215215479e-02 -1.0497237150981086e-01 0.0000000000000000e+00  2.8400766470705902e-02 -1.0252341150163947e-01 0.0000000000000000e+00  -2.5583600362014590e-02 -1.0489950111308251e-01 0.0000000000000000e+00  -5.9545376018651286e-02 5.1752017670232270e-02 0.0000000000000000e+00  6.5779333092434486e-02 -8.5826139833594856e-02 0.0000000000000000e+00  4.5881574836827123e-02 1.0035165738831575e-01 0.0000000000000000e+00  -1.3806256643860516e-02 1.0887279648579382e-01 0.0000000000000000e+00  -7.0786183137822770e-02 8.6580510117061318e-02 0.0000000000000000e+00  8.5453735926141139e-02 -4.9481177713224113e-02 0.0000000000000000e+00  9.3171101667376188e-02 6.4666415295507013e-02 0.0000000000000000e+00  4.5891068274788643e-02 -7.3315017548911801e-02 0.0000000000000000e+00  1.6982032022534593e-02 -3.3898347915727732e-02 0.0000000000000000e+00  -1.0734793375111255e-01 4.0693185895003467e-02 0.0000000000000000e+00  -1.5315071266256803e-02 -2.9895898503261908e-02 0.0000000000000000e+00  2.2307791267430918e-02 -1.0354528573037383e-01 0.0000000000000000e+00  -3.5559261945721891e-02 -9.7708250183717843e-02 0.0000000000000000e+00  -6.1220521785304155e-02 -8.8230474600593967e-02 0.0000000000000000e+00  -4.3054668923941476e-02 -7.2874523399156524e-02 0.0000000000000000e+00  4.3818903790129989e-02 -9.7301010131088037e-02 0.0000000000000000e+00  1.1488567143275251e-01 1.3036185537112409e-02 0.0000000000000000e+00  -1.1562033540056982e-01 -3.3361516570852541e-03 0.0000000000000000e+00  -1.0262212083395443e-01 -4.1096127754851941e-02 0.0000000000000000e+00  8.4453416864888914e-02 -5.8000624558920161e-02 0.0000000000000000e+00  -1.2284673222567297e-02 -1.0733238938386017e-01 0.0000000000000000e+00  1.0401115613716773e-01 -3.9221247514079648e-02 0.0000000000000000e+00  5.0524407326652539e-02 5.5977370582960109e-02 0.0000000000000000e+00  -3.8054704627885849e-02 9.2090221298250924e-02 0.0000000000000000e+00  -1.6401976296310096e-03 1.9107782561064499e-01 0.0000000000000000e+00  -8.2877583764782201e-02 -6.1870743474870600e-02 0.0000000000000000e+00  -7.5683865156049634e-02 -6.7032308204568319e-02 0.0000000000000000e+00  -9.2440346953043248e-02 -4.5815385431011929e-03 0.0000000000000000e+00  -4.6536093563516179e-02 -1.7311668227230067e-02 0.0000000000000000e+00  -2.1080946727360338e-02 1.6387933867563048e-01 0.0000000000000000e+00  2.3423452114885734e-02 -3.3136307114507491e-02 0.0000000000000000e+00  -2.9558478549824744e-02 1.4743310447757860e-01 0.0000000000000000e+00  4.0230626238266093e-02 9.1113462886161692e-02 0.0000000000000000e+00  -6.7913950741149628e-02 5.6693690123480994e-02 0.0000000000000000e+00  -7.7496764731883508e-02 7.6192847451505646e-02 0.0000000000000000e+00  1.7744090470792413e-02 1.6506974530403309e-01 0.0000000000000000e+00  3.5843869448899883e-02 1.4039561429341740e-01 0.0000000000000000e+00  6.5542649111993131e-02 6.1217045367044420e-02 0.0000000000000000e+00  5.8318928026208451e-02 1.0138944047594552e-01 0.0000000000000000e+00  -4.3039278149648579e-02 -6.6154627238480659e-02 0.0000000000000000e+00  7.7394238833701015e-02 6.1379169974460600e-02 0.0000000000000000e+00  7.6473072356830207e-03 1.1265470058652247e-01 0.0000000000000000e+00  -4.9669935568795037e-02 1.0224186972507666e-01 0.0000000000000000e+00  -2.7398078856518643e-03 7.4531919828289744e-02 0.0000000000000000e+00  6.1448815107894655e-02 9.5128715870521866e-02 0.0000000000000000e+00  -9.4274794538277279e-02 6.6295097250033796e-02 0.0000000000000000e+00  1.0207038590880407e-01 5.4739305813877447e-02 0.0000000000000000e+00  -7.6914095023439391e-02 -7.9988540732721797e-02 0.0000000000000000e+00  1.1598622553778004e-01 3.6625287689066419e-03 0.0000000000000000e+00  1.1252237886520496e-01 -2.1559440349341489e-02 0.0000000000000000e+00  1.7037485840304387e-02 -8.0236641203465034e-02 0.0000000000000000e+00  -1.9664921785206350e-02 -1.1667270709520329e-01 0.0000000000000000e+00  5.6031482512475077e-02 -7.6412180741342442e-02 0.0000000000000000e+00  2.6368098514269973e-02 -7.0768933774520038e-02 0.0000000000000000e+00  -4.5341956224998703e-02 7.8614882967129943e-02 0.0000000000000000e+00  5.7210662518877305e-02 -1.7406590305915643e-02 0.0000000000000000e+00  3.2471414821559621e-03 -1.4013918828131222e-02 0.0000000000000000e+00  3.1426751181387650e-03 -8.4748327278478017e-02 0.0000000000000000e+00  1.0062062218622085e-01 -4.5190342062777944e-02 0.0000000000000000e+00  1.0465340527631305e-01 6.8288348980427242e-03 0.0000000000000000e+00  8.7249418567601031e-02 -6.4808337421376733e-02 0.0000000000000000e+00  -4.3343122230856165e-02 1.2332959610924010e-01 0.0000000000000000e+00  -6.9983702897332287e-02 -1.0347874254947433e-01 0.0000000000000000e+00  -1.1457182548957888e-02 1.2332591348527920e-01 0.0000000000000000e+00  9.0822516243922985e-02 1.5734219570072368e-02 0.0000000000000000e+00  7.3590212381762790e-02 5.9709056183462651e-02 0.0000000000000000e+00  -2.7300892598037252e-02 -6.9106392464414315e-02 0.0000000000000000e+00  -3.9987226097762830e-03 -4.7309283627397232e-02 0.0000000000000000e+00  2.2907170387856810e-02 -7.8341569537721770e-02 0.0000000000000000e+00  1.0099277191950788e-01 -2.2043536082550740e-02 0.0000000000000000e+00  -5.2643457883374142e-02 1.0207374355778329e-01 0.0000000000000000e+00  1.5941430917072789e-02 8.7993025988443302e-02 0.0000000000000000e+00  -9.3901055983134279e-02 3.5317531915507364e-02 0.0000000000000000e+00  -9.8948792382024198e-02 -4.8815361434101034e-02 0.0000000000000000e+00  5.3827041613755476e-02 -8.9153748129539551e-02 0.0000000000000000e+00  2.7947148529984180e-02 -1.2038948488128476e-01 0.0000000000000000e+00  -2.5428118434158414e-02 -9.1120964633210733e-02 0.0000000000000000e+00  -2.1424893968468771e-02 -7.7238622081522434e-02 0.0000000000000000e+00  -1.8091705357302493e-02 1.2171092831824784e-01 0.0000000000000000e+00  -1.6539506917872843e-02 -1.1131037440556849e-01 0.0000000000000000e+00  -3.8979355978711681e-02 -1.0581256452145521e-01 0.0000000000000000e+00  -1.0538015428344995e-01 -2.3943919227807888e-02 0.0000000000000000e+00  6.0247604291285804e-02 -9.5474964150621039e-02 0.0000000000000000e+00  7.8198592652858737e-02 -8.0793129430113117e-02 0.0000000000000000e+00  9.5848625237260551e-02 -4.8349077366684076e-02 0.0000000000000000e+00  -4.6122514134530862e-02 -7.6031058140837243e-02 0.0000000000000000e+00  -1.1426850064163238e-01 2.1891581669912629e-02 0.0000000000000000e+00  -1.1559616562735013e-01 -7.2829522955182493e-03 0.0000000000000000e+00  8.2366603252207626e-02 -6.5014539819086725e-02 0.0000000000000000e+00  -1.1177879060745449e-01 -2.4383152166224102e-02 0.0000000000000000e+00  -1.0597156297693176e-01 -3.7231180649641406e-02 0.0000000000000000e+00  -1.0526278425825543e-01 -7.5338530909253229e-03 0.0000000000000000e+00  -8.8265706542060118e-02 -5.8438984081707779e-02 0.0000000000000000e+00  -7.9722144952253104e-02 -6.5769575457553839e-02 0.000000