<?xml version="1.0"?>
<VTKFile type="UnstructuredGrid"  version="0.1"  >
<UnstructuredGrid>
<Piece  NumberOfPoints="1417" NumberOfCells="2668">
<Points>
<DataArray  type="Float64"  NumberOfComponents="3"  format="ascii">-0.9966019147226005 0.2795842602721944 0  -0.9931285994392469 0.1699598996116979 0  -0.9772498203806786 0.0610517641494209 0  -0.949119895820338 -0.04575440691220412 0  -0.9091600517066553 -0.1487499026596447 0  -0.8578149934189466 -0.2467344905857584 0  -0.7959419794425663 -0.338375204070587 0  -0.7248272546007534 -0.4219357436425962 0  -0.6458224386620001 -0.4965649631173071 0  -0.5619714010116523 -0.5600943443142586 0  -0.47471908080594 -0.6132377066686452 0  -0.3834158811040712 -0.6567256978481043 0  -0.2891767742375498 -0.6905023714039246 0  -0.1928802760936087 -0.7146210035695151 0  -0.09628041330998667 -0.7288320167851338 0  -0.003324580190174386 -0.7333344059479269 0  0.09003839889039568 -0.7287192882573241 0  0.1859541970656306 -0.7144066138274797 0  0.2815197404000926 -0.6903040995386374 0  0.3751460865319542 -0.6565115544832194 0  0.465922274826355 -0.6132065438149383 0  0.5527391956397872 -0.5605521334699107 0  0.6358559469438786 -0.4977098541954325 0  0.7137311907624914 -0.4248794902121853 0  0.7852148131378343 -0.3420393833429601 0  0.8477320341685746 -0.2508559235633164 0  0.8998163713690039 -0.1531627246656221 0  0.9401420952191851 -0.05093976909188026 0  0.9689991436132408 0.05574219724593333 0  0.9856823292021215 0.1652567178708892 0  0.9898522131331897 0.2745700152485175 0  0.981718408883519 0.383903545724285 0  0.9613214188303466 0.4918174306394504 0  0.9288930375148272 0.5967151341365813 0  0.8853516763714482 0.6964107086610832 0  0.8307749072583313 0.7908225745363167 0  0.7660440058511461 0.8786063540574193 0  0.6915204422760892 0.9592431770794285 0  0.6090855378613442 1.030695285308556 0  0.5192387981042966 1.092664469166639 0  0.4230095039681421 1.144497949533024 0  0.3217956544890478 1.185381553867205 0  0.2169205106693529 1.214969364329353 0  0.1089270931866734 1.233046810810058 0  -0.0008884554670780166 1.239175449870699 0  -0.1098233573952318 1.233455777414141 0  -0.2177046587485257 1.215857160514697 0  -0.32335698672318 1.186485921407513 0  -0.4248749083476662 1.145905289038412 0  -0.5212032623975903 1.094544424822813 0  -0.6111156370305384 1.033148198289687 0  -0.6941354820541018 0.9619841788513909 0  -0.7685642374353335 0.8823043230109842 0  -0.8340205331311262 0.7945940643391232 0  -0.8892167124559091 0.7003616533290404 0  -0.9335752702209893 0.6003190228582068 0  -0.9664452901997085 0.4963945023331096 0  -0.9876284780766806 0.3887675158458044 0  2.640870336732664 2.53715977899439e-07 0  2.633128637961082 0.2021568687513865 0  2.609919989513487 0.4031256863591995 0  2.571402499589578 0.6017313985303081 0  2.517797442662377 0.7968031442357137 0  2.449413598621106 0.9872010526531133 0  2.366657063977624 1.171806252688243 0  2.270012066524794 1.349532965681889 0  2.160045665698277 1.5193404956856 0  2.03740377954354 1.680234379166821 0  1.902811355231919 1.831269156795602 0  1.757039375513344 1.97154832767404 0  1.600970970941893 2.100273547435687 0  1.435494998023266 2.216661889438226 0  1.261602563126769 2.320042549308491 0  1.080300163912151 2.409811369461071 0  0.8926637435847864 2.485436062912951 0  0.6997819948999885 2.546469026609274 0  0.502798851143006 2.592564896987554 0  0.3028632113759218 2.623454965081682 0  0.1011537522692036 2.638935243527502 0  -0.1011503848828569 2.638940925063036 0  -0.3028643776151315 2.623448497819653 0  -0.5027966076871305 2.592574043468624 0  -0.6997819674367023 2.546470191139082 0  -0.8926596485702993 2.485430246030457 0  -1.080303669763482 2.409809941899898 0  -1.26159957589149 2.320044089706871 0  -1.43549679863191 2.216664079161776 0  -1.600966223084386 2.1002724013273 0  -1.757044317368007 1.971555194923726 0  -1.902807381595561 1.831271986968871 0  -2.037408460745884 1.680240298968964 0  -2.160052577062612 1.519344955250505 0  -2.270013137155668 1.349533978833534 0  -2.366664286003541 1.171806716199805 0  -2.449414149437204 0.9872015373913898 0  -2.517802489444243 0.7968076479640166 0  -2.571409769144329 0.6017324211164498 0  -2.609920362120566 0.4031256525983087 0  -2.633127841210535 0.2021593228989394 0  -2.640868561548383 1.599520893201213e-07 0  -2.633119993611682 -0.2021580962575512 0  -2.609919889140531 -0.4031286830359967 0  -2.571408982461905 -0.6017311420709969 0  -2.517801137964187 -0.7968087967549529 0  -2.449418675890786 -0.9872052171838708 0  -2.366662899586237 -1.17180780129196 0  -2.270017294755344 -1.349538755417933 0  -2.160049645797432 -1.519346536580064 0  -2.037408002480666 -1.680238055854099 0  -1.902808476625991 -1.831270606124493 0  -1.757046079330373 -1.971553463630215 0  -1.600966782210169 -2.100271241635734 0  -1.435492245054869 -2.216656435642783 0  -1.261597757211964 -2.320044506291829 0  -1.080298950333518 -2.409810401103317 0  -0.8926631393692149 -2.485434481489648 0  -0.6997854177908968 -2.546475365030936 0  -0.5027980467807931 -2.592566016650653 0  -0.3028636290685439 -2.623454460019857 0  -0.1011522406007674 -2.638934279590909 0  0.101151174611922 -2.638940216392077 0  0.3028659789018049 -2.623454006928777 0  0.5027982181318128 -2.592565772543201 0  0.6997854030869239 -2.546475372936072 0  0.8926625364141185 -2.485437093171575 0  1.080301825957503 -2.409809637140345 0  1.261597926141847 -2.320044796176116 0  1.435492089246134 -2.216656928937461 0  1.600966873314045 -2.100272033900668 0  1.757044201920972 -1.971554872020415 0  1.902808777718215 -1.831270033656681 0  2.037406889275202 -1.680240714896033 0  2.160052373597819 -1.519343528725924 0  2.270016937676588 -1.349537966198991 0  2.366663081819389 -1.171808417485282 0  2.449413283662741 -0.9872009618263844 0  2.517802262816294 -0.7968039242854572 0  2.571409086141518 -0.6017329150765115 0  2.609926340275555 -0.4031275270032224 0  2.633127090315942 -0.2021604003812915 0  -0.004276232289744183 0.2575102524876126 0  -0.1279590792964008 -1.68342341924611 0  0.865970520445256 -1.468928419768484 0  -1.058604449763249 -1.34841554338529 0  1.534503953936824 -0.8410213985428372 0  -1.662440539735082 -0.6043225640587058 0  1.802596487903854 -0.05853554596313112 0  -1.814848418701748 0.2006841984870555 0  1.702535223376491 0.7536473996319474 0  -1.603245941194644 0.9756522675613817 0  1.262838474035834 1.425703176416865 0  -1.120110646316569 1.554856750400445 0  0.5877318522544663 1.845089293116452 0  -0.4577061835401566 1.882365726443487 0  0.451985660887765 -1.951957746237961 0  -0.7268912991851598 -1.877673211670599 0  -1.639604831394591 -1.252460137950493 0  1.440241236234278 -1.499156783551812 0  0.0616259819753228 1.766626527557224 0  0.3292055718620305 -1.418378665948405 0  2.016961375684133 -0.5636953512843699 0  -0.4828735024644809 -1.242846193594018 0  0.4873480922229227 0.3515577269835728 0  -0.50389371317633 0.2465346278318103 0  0.9590139852392752 -0.9405297173799352 0  0.3054511802184448 -0.120103346980167 0  -2.099640902686996 -0.2471018418650012 0  -0.2572237202274574 0.680595896551766 0  -0.2252566006373535 -0.1759341349597858 0  -1.135268549703101 -0.8032907147238052 0  2.083243861505071 0.3931467922214201 0  -0.0001815986441147365 -2.161643158766138 0  0.9352589769103453 -1.949912688722887 0  -1.197467828125396 -1.806143097740835 0  1.372762284791182 -0.3570977297963805 0  -2.02798997665653 0.7217357169250231 0  1.808941961075473 -1.21849631826923 0  -1.444215023864572 -0.1539513609891848 0  1.728667913379383 1.310228739527506 0  -1.973401945770233 -0.9423177672731343 0  -1.633132968931583 1.447911093244846 0  1.071561648144923 1.874842859570024 0  0.169828264858786 2.201163746806989 0  1.481364051674115 0.3077190830512966 0  -0.05975740598097073 -1.245075627773381 0  -0.9142549014606699 1.976188955515844 0  -1.453755894680479 0.5129619486820093 0  2.210569848838676 -0.1877605589614961 0  0.2118073547827823 0.7329146212438739 0  1.279971555912323 0.9521967575006788 0  -2.226500012838601 0.144036822736237 0  0.8086676580339205 1.443615315362239 0  0.5444034755455676 -1.062501246168069 0  -1.152425955430721 1.106649539531862 0  -0.8116743140330068 -1.031700184252427 0  -0.6736318769208708 1.501553949287524 0  -0.3589530272644849 -2.007197329040018 0  2.102296557160178 0.7919907199761653 0  -1.970996160691784 1.105075696899076 0  -0.3482358951084369 2.248426654329178 0  1.430402040217537 1.766542575535404 0  -1.318771042431196 1.868407762336842 0  -1.570903195056803 -1.633247623958079 0  1.295770862434406 -1.140336513767395 0  0.3667487273703517 1.549029257069143 0  -1.185334257769604 -0.4354951585681929 0  1.069819094555652 -0.5877721474780409 0  -2.024330063787764 -0.5926223245166807 0  0.5400981023385431 2.215145990033089 0  -0.2525355334085314 1.578006085226241 0  2.067119534462085 -0.9393048173521265 0  0.6958965642272714 -2.202088411572815 0  0.3270266981220591 -2.278105237665226 0  1.306621517049843 -1.85925110325011 0  0.991225525029473 1.14484170888772 0  1.317149212728814 -0.01260516565895088 0  1.294702682528677 0.5998674310237717 0  -0.4770614117844326 -1.60491194765198 0  -1.472772353506633 0.1784035533562692 0  -0.6382491960294669 -2.210339874261592 0  -1.307347336697422 0.8108711078033809 0  -1.312948153234139 -1.108970702503085 0  1.721016389264906 -0.3868558657493313 0  0.2065528988806665 -1.059989143470285 0  -1.642575264490033 -0.9272329179938599 0  0.6112875501848625 0.02739254692184527 0  -0.5553182161028063 -0.09510187602980671 0  0.05503868399203742 -0.3646437493506328 0  -1.78428880008845 -0.1288121159734975 0  0.6884351620789274 -1.735041695248918 0  0.1397630492739911 -1.864998943853076 0  2.013603031351013 1.123097340770374 0  -0.7477760434321757 -1.437582456443079 0  -0.5805421570472101 0.5733163751618833 0  -1.00133932806617 -2.081885903560106 0  -1.962783610946355 -1.26184687729274 0  -0.1609720818009746 1.992642961239253 0  0.8174273915163737 2.063163578190274 0  -0.6435814003660902 2.138212282455864
[...]
<PointData  Vectors="f_4449-0"> 
<DataArray  type="Float64"  Name="f_4449-0"  NumberOfComponents="3" format="ascii">3.5897346011653972e-03 -7.2083555884395231e-02 0.0000000000000000e+00  1.8643841337419559e-02 -8.1910262355771174e-02 0.0000000000000000e+00  3.6199425561663792e-02 -9.1030423391646645e-02 0.0000000000000000e+00  5.6497730969977580e-02 -9.8832417764618333e-02 0.0000000000000000e+00  7.8902457682371488e-02 -1.0367951461182362e-01 0.0000000000000000e+00  1.0314120890061927e-01 -1.0621139471714242e-01 0.0000000000000000e+00  1.2799064600663465e-01 -1.0485045457510027e-01 0.0000000000000000e+00  1.5044553711239278e-01 -9.6613884648949586e-02 0.0000000000000000e+00  1.6745165843020152e-01 -8.1898139854187771e-02 0.0000000000000000e+00  1.6987443616522671e-01 -5.7641608501645757e-02 0.0000000000000000e+00  1.6012528554301750e-01 -2.9804515460054134e-02 0.0000000000000000e+00  1.4420187293163469e-01 -4.4447690801096684e-03 0.0000000000000000e+00  1.2215570055975286e-01 1.7633212443943464e-02 0.0000000000000000e+00  9.5617808528957848e-02 3.5244306097895965e-02 0.0000000000000000e+00  6.0750808675921364e-02 4.7921077598075422e-02 0.0000000000000000e+00  8.2364561986793122e-03 5.4106394621693164e-02 0.0000000000000000e+00  -4.4378775636345263e-02 4.9741103656316794e-02 0.0000000000000000e+00  -8.2173588455548729e-02 3.8524635075285807e-02 0.0000000000000000e+00  -1.1135808870616305e-01 2.1757062840421827e-02 0.0000000000000000e+00  -1.3490115991273249e-01 4.5322960606051940e-04 0.0000000000000000e+00  -1.5240538978860099e-01 -2.3998591982373901e-02 0.0000000000000000e+00  -1.6415016986230127e-01 -5.1079397841023111e-02 0.0000000000000000e+00  -1.6507689074848023e-01 -7.6956037508242550e-02 0.0000000000000000e+00  -1.5535926864034391e-01 -9.7628581173414511e-02 0.0000000000000000e+00  -1.3424359681219716e-01 -1.0788366505122243e-01 0.0000000000000000e+00  -1.0908548828607759e-01 -1.1053175666018421e-01 0.0000000000000000e+00  -8.4027161578193940e-02 -1.0802597866293730e-01 0.0000000000000000e+00  -6.1883243654496732e-02 -1.0492072612252058e-01 0.0000000000000000e+00  -4.0934251101891903e-02 -9.7014242386182878e-02 0.0000000000000000e+00  -2.2629355102078478e-02 -8.5622919918791077e-02 0.0000000000000000e+00  -7.4263925434059162e-03 -7.7047673445353126e-02 0.0000000000000000e+00  5.7419904658908170e-03 -6.6097104201577217e-02 0.0000000000000000e+00  1.6442048857890135e-02 -5.3470516680587062e-02 0.0000000000000000e+00  2.4561031146617555e-02 -4.0478250504801409e-02 0.0000000000000000e+00  3.1660066277076598e-02 -3.0428525074888968e-02 0.0000000000000000e+00  3.5995968527393403e-02 -1.8841850283996875e-02 0.0000000000000000e+00  3.8719335196928314e-02 -8.1400528270414302e-03 0.0000000000000000e+00  3.7372364481897541e-02 4.3468763681575994e-03 0.0000000000000000e+00  3.6217521443408209e-02 1.3809202483307246e-02 0.0000000000000000e+00  3.3170559512235742e-02 2.2539802977736608e-02 0.0000000000000000e+00  2.8345268685028350e-02 3.0299361770272974e-02 0.0000000000000000e+00  2.2808480908241491e-02 3.6369563275937142e-02 0.0000000000000000e+00  1.7135277010499207e-02 4.0737909750307631e-02 0.0000000000000000e+00  9.1904266613360742e-03 4.3926286603293556e-02 0.0000000000000000e+00  -8.5169383029669679e-04 4.5295020704665179e-02 0.0000000000000000e+00  -7.4648298977801732e-03 4.4763792692491582e-02 0.0000000000000000e+00  -1.4780617511419914e-02 4.2717352710144547e-02 0.0000000000000000e+00  -2.3328698458469938e-02 3.7882205182580446e-02 0.0000000000000000e+00  -2.9127722543275981e-02 3.1790030659214166e-02 0.0000000000000000e+00  -3.4301956850054167e-02 2.4491311800515593e-02 0.0000000000000000e+00  -3.6824082746508141e-02 1.6576279646128393e-02 0.0000000000000000e+00  -3.9146309115290705e-02 6.4547652324637361e-03 0.0000000000000000e+00  -3.8703971661264568e-02 -3.5477542701391981e-03 0.0000000000000000e+00  -3.7639456120407012e-02 -1.5714622822148309e-02 0.0000000000000000e+00  -3.3627383253432175e-02 -2.7015957572989094e-02 0.0000000000000000e+00  -2.7814643135795694e-02 -3.9255380276652915e-02 0.0000000000000000e+00  -1.9262901499590111e-02 -4.9394380037710593e-02 0.0000000000000000e+00  -9.0641655755492236e-03 -6.1604653083894928e-02 0.0000000000000000e+00  1.4823957063715615e-01 7.5689258420383138e-07 0.0000000000000000e+00  1.4784009042913637e-01 1.1348377695319177e-02 0.0000000000000000e+00  1.4649984030915980e-01 2.2623272464983253e-02 0.0000000000000000e+00  1.4433651840770814e-01 3.3773398734559798e-02 0.0000000000000000e+00  1.4133622006656457e-01 4.4720331237412959e-02 0.0000000000000000e+00  1.3749175263677405e-01 5.5407944895735056e-02 0.0000000000000000e+00  1.3284790343957784e-01 6.5773946909830044e-02 0.0000000000000000e+00  1.2742311078980820e-01 7.5747999716693354e-02 0.0000000000000000e+00  1.2124970370413782e-01 8.5279230006904544e-02 0.0000000000000000e+00  1.1436965607998649e-01 9.4318833728257681e-02 0.0000000000000000e+00  1.0684656469197144e-01 1.0281217465887817e-01 0.0000000000000000e+00  9.8625435193670188e-02 1.1066266750754654e-01 0.0000000000000000e+00  8.9909129986209438e-02 1.1793305633792599e-01 0.0000000000000000e+00  8.0596177096778979e-02 1.2445932791939808e-01 0.0000000000000000e+00  7.0851331827579564e-02 1.3025657670019106e-01 0.0000000000000000e+00  6.0652804905652904e-02 1.3530749120503485e-01 0.0000000000000000e+00  5.0134414574023456e-02 1.3954899089028927e-01 0.0000000000000000e+00  3.9284769792862627e-02 1.4294249660662481e-01 0.0000000000000000e+00  2.8223635199061660e-02 1.4553117796853332e-01 0.0000000000000000e+00  1.6997235153398134e-02 1.4730516190937831e-01 0.0000000000000000e+00  5.6828521841546442e-03 1.4814475098014665e-01 0.0000000000000000e+00  -5.6666537913267314e-03 1.4817282724505196e-01 0.0000000000000000e+00  -1.7002244318682417e-02 1.4727323371026413e-01 0.0000000000000000e+00  -2.8215152283160062e-02 1.4557581533984906e-01 0.0000000000000000e+00  -3.9281313083949373e-02 1.4294901683094302e-01 0.0000000000000000e+00  -5.0112263547882376e-02 1.3952083587478584e-01 0.0000000000000000e+00  -6.0674856022302957e-02 1.3529841310051088e-01 0.0000000000000000e+00  -7.0834360527800261e-02 1.3026505554262324e-01 0.0000000000000000e+00  -8.0604954376797128e-02 1.2447047275986727e-01 0.0000000000000000e+00  -8.9882059539901374e-02 1.1792975362171845e-01 0.0000000000000000e+00  -9.8656226754834681e-02 1.1069120589921770e-01 0.0000000000000000e+00  -1.0682564834800608e-01 1.0282675973676821e-01 0.0000000000000000e+00  -1.1439141174434937e-01 9.4349800319036559e-02 0.0000000000000000e+00  -1.2128494059553263e-01 8.5299779702297976e-02 0.0000000000000000e+00  -1.2742828855596589e-01 7.5752756109217848e-02 0.0000000000000000e+00  -1.3288318826964357e-01 6.5777347940883080e-02 0.0000000000000000e+00  -1.3749453446062412e-01 5.5410572713515176e-02 0.0000000000000000e+00  -1.4136267341621114e-01 4.4737530591795124e-02 0.0000000000000000e+00  -1.4437137737608785e-01 3.3782809195815972e-02 0.0000000000000000e+00  -1.4650173445972095e-01 2.2622944424505291e-02 0.0000000000000000e+00  -1.4783601548892331e-01 1.1361089925695275e-02 0.0000000000000000e+00  -1.4823076374255445e-01 4.3576773952002756e-07 0.0000000000000000e+00  -1.4779736824786044e-01 -1.1353599018868187e-02 0.0000000000000000e+00  -1.4649972478379278e-01 -2.2637245676079904e-02 0.0000000000000000e+00  -1.4436784408533371e-01 -3.3775917595158127e-02 0.0000000000000000e+00  -1.4135539329032870e-01 -4.4745781721646137e-02 0.0000000000000000e+00  -1.3751636332584449e-01 -5.5430406837111812e-02 0.0000000000000000e+00  -1.3287712447144931e-01 -6.5781166787153220e-02 0.0000000000000000e+00  -1.2744800115668375e-01 -7.5778234838390593e-02 0.0000000000000000e+00  -1.2127035999623662e-01 -8.5307634538974372e-02 0.0000000000000000e+00  -1.1439052097783226e-01 -9.4337238065863874e-02 0.0000000000000000e+00  -1.0683138711463622e-01 -1.0282020540149001e-01 0.0000000000000000e+00  -9.8664982145594313e-02 -1.1068286648871650e-01 0.0000000000000000e+00  -8.9887044295213728e-02 -1.1792286717788025e-01 0.0000000000000000e+00  -8.0582220886418796e-02 -1.2443305891169726e-01 0.0000000000000000e+00  -7.0825116167396340e-02 -1.3026771562665709e-01 0.0000000000000000e+00  -6.0646324055284785e-02 -1.3530306939977815e-01 0.0000000000000000e+00  -5.0131215523564109e-02 -1.3954121004084380e-01 0.0000000000000000e+00  -3.9298821584329700e-02 -1.4297456173886733e-01 0.0000000000000000e+00  -2.8222890990988136e-02 -1.4553591010488873e-01 0.0000000000000000e+00  -1.6997814220751632e-02 -1.4730277368378594e-01 0.0000000000000000e+00  -5.6769013727534789e-03 -1.4813983541766318e-01 0.0000000000000000e+00  5.6714508727190305e-03 -1.4816924909481866e-01 0.0000000000000000e+00  1.7009628619425562e-02 -1.4730049558936573e-01 0.0000000000000000e+00  2.8223758917334679e-02 -1.4553465956041736e-01 0.0000000000000000e+00  3.9300782257500624e-02 -1.4297389493215457e-01 0.0000000000000000e+00  5.0126262886440565e-02 -1.3955479320594744e-01 0.0000000000000000e+00  6.0663065938629933e-02 -1.3529788365938383e-01 0.0000000000000000e+00  7.0823184801919889e-02 -1.3027047990117677e-01 0.0000000000000000e+00  8.0581750370796373e-02 -1.2443523599703753e-01 0.0000000000000000e+00  8.9887335520083378e-02 -1.1792682405002862e-01 0.0000000000000000e+00  9.8655288971734825e-02 -1.1069013562476770e-01 0.0000000000000000e+00  1.0683293615208410e-01 -1.0281724746486512e-01 0.0000000000000000e+00  1.1438347643967862e-01 -9.4352487948284172e-02 0.0000000000000000e+00  1.2128568159528792e-01 -8.5290354118764386e-02 0.0000000000000000e+00  1.2744699090155928e-01 -7.5772722903105244e-02 0.0000000000000000e+00  1.3287619339810117e-01 -6.5787962524139612e-02 0.0000000000000000e+00  1.3749006787134446e-01 -5.5408651980353871e-02 0.0000000000000000e+00  1.4136220508535391e-01 -4.4717484623098339e-02 0.0000000000000000e+00  1.4436840545766522e-01 -3.3783294735288426e-02 0.0000000000000000e+00  1.4653116303567892e-01 -2.2631675097284757e-02 0.0000000000000000e+00  1.4783206342266011e-01 -1.1369075358469694e-02 0.0000000000000000e+00  -3.7955700327588350e-03 7.0203711815934031e-02 0.0000000000000000e+00  2.6936792117629913e-03 -4.8564515897597908e-02 0.0000000000000000e+00  6.4648365444824052e-03 -7.2750331118721062e-02 0.0000000000000000e+00  -1.7478300156470502e-02 -7.1609872177078510e-02 0.0000000000000000e+00  4.3164716728853809e-02 -5.5508342415375292e-02 0.0000000000000000e+00  -4.6992351808878501e-02 -5.2161489990151473e-02 0.0000000000000000e+00  6.3965835466007703e-02 -4.0360157205551951e-02 0.0000000000000000e+00  -7.4773482005891442e-02 -3.4599737999942724e-02 0.0000000000000000e+00  8.8984232421078974e-02 -7.2205595303759381e-03 0.0000000000000000e+00  -9.3319184973753022e-02 7.4318181937510662e-03 0.0000000000000000e+00  8.6852463572319460e-02 4.4275901638075640e-02 0.0000000000000000e+00  -8.0098430365361406e-02 5.8361126715651988e-02 0.0000000000000000e+00  4.7280755498934547e-02 8.8643137498733079e-02 0.0000000000000000e+00  -3.5480280129184097e-02 9.4112351840401745e-02 0.0000000000000000e+00  1.3113117032412126e-02 -9.8887013542368604e-02 0.0000000000000000e+00  -2.6895841677436888e-02 -9.9438090233561455e-02 0.0000000000000000e+00  -8.0694622532641827e-02 -7.4410815341817704e-02 0.0000000000000000e+00  7.1890211626038467e-02 -8.8072243592299468e-02 0.0000000000000000e+00  5.8576786748221190e-03 8.2631953240041078e-02 0.0000000000000000e+00  -2.7707920885620841e-02 -2.4656127539194508e-02 0.0000000000000000e+00  1.0179961185579327e-01 -4.4616652110740909e-02 0.0000000000000000e+00  5.1589385962311558e-02 -3.9689677936677090e-02 0.0000000000000000e+00  1.4625256025409471e-02 2.7219184802807959e-02 0.0000000000000000e+00  -1.1365024744823187e-02 2.1072500556853092e-02 0.0000000000000000e+00  -3.3038660047899085e-02 -6.4166022388255389e-02 0.0000000000000000e+00  -5.2170089506273415e-02 7.3828860478206110e-02 0.0000000000000000e+00  -1.0857502208371626e-01 -3.5386402172760456e-02 0.0000000000000000e+00  -1.8192788243984032e-02 5.4007591664609098e-02 0.0000000000000000e+00  5.1775097094540104e-02 8.7861064893896113e-02 0.0000000000000000e+00  2.8346339114674986e-02 -5.6417746884708742e-02 0.0000000000000000e+00  1.1597244067149860e-01 -6.6296491241127457e-03 0.0000000000000000e+00  -8.5632879919262652e-04 -1.1849199201333303e-01 0.0000000000000000e+00  4.4719626742010798e-02 -1.1307950995015856e-01 0.0000000000000000e+00  -6.1833704676401355e-02 -1.0555164705378331e-01 0.0000000000000000e+00  -1.7828672806610848e-02 -6.0001937954620721e-02 0.0000000000000000e+00  -1.2112614468097657e-01 1.0992262905062344e-02 0.0000000000000000e+00  9.9094096420105623e-02 -7.3251987153360454e-02 0.0000000000000000e+00  1.4050309650624690e-03 -6.1723691835004042e-02 0.0000000000000000e+00  1.1379776291591982e-01 4.9774923074646003e-02 0.0000000000000000e+00  -1.0613122310180589e-01 -6.0995183009073070e-02 0.0000000000000000e+00  -1.1033611416613424e-01 6.1125409873931648e-02 0.0000000000000000e+00  7.9391909827044166e-02 9.5130474069218318e-02 0.0000000000000000e+00  1.4003191570726780e-02 1.2736119131191714e-01 0.0000000000000000e+00  3.1133124871530467e-02 -5.1838741648064568e-02 0.0000000000000000e+00  1.4921159378055052e-02 1.5433895398513111e-02 0.0000000000000000e+00  -6.7587561776910721e-02 1.0586483163483638e-01 0.0000000000000000e+00  -4.6942093523735053e-02 -4.1337207723223822e-02 0.0000000000000000e+00  1.2251383539585320e-01 -2.6743345267121622e-02 0.0000000000000000e+00  1.2912313693312222e-02 5.5770232783277258e-02 0.0000000000000000e+00  6.4261756561004094e-02 -1.1577262471233665e-02 0.0000000000000000e+00  -1.2709780564656495e-01 -1.3575475868268001e-02 0.0000000000000000e+00  5.8212665955055365e-02 4.0808875162793884e-02 0.0000000000000000e+00  -7.1517067647870608e-02 -5.3873059938290301e-02 0.0000000000000000e+00  -6.6619220783950564e-02 4.7943795747359408e-03 0.0000000000000000e+00  4.6354596211694243e-02 -6.3196040159527622e-02 0.0000000000000000e+00  -4.9806506202270028e-02 4.9960525514865330e-02 0.0000000000000000e+00  -1.2800959039653821e-02 -1.0288001899999034e-01 0.0000000000000000e+00  1.2826300779621685e-01 2.2416972661064658e-02 0.0000000000000000e+00  -1.2568533932735798e-01 4.1643155273860491e-02 0.0000000000000000e+00  -2.5191551785699730e-02 1.3147463581121255e-01 0.0000000000000000e+00  9.9690455302887490e-02 8.9593286974182798e-02 0.0000000000000000e+00  -9.2222972550670190e-02 9.8809475486038648e-02 0.0000000000000000e+00  -8.8948894654155494e-02 -9.7326530688292404e-02 0.0000000000000000e+00  3.2553253268236645e-02 -6.6729084131310706e-02 0.0000000000000000e+00  2.8999870581915770e-02 5.6544806123867510e-02 0.0000000000000000e+00  5.5274685045989612e-02 -6.7249519915303577e-02 0.0000000000000000e+00  -6.5393322365516052e-02 -6.5511531830982336e-02 0.0000000000000000e+00  -1.0253549696006674e-01 -4.7901966892483813e-02 0.0000000000000000e+00  4.0860591798126913e-02 1.2800835762274987e-01 0.0000000000000000e+00  -1.9938108286784068e-02 6.1702046489235551e-02 0.0000000000000000e+00  1.1702020477472064e-01 -5.8988417203908107e-02 0.0000000000000000e+00  3.6035347973743137e-02 -1.2997686366969843e-01 0.0000000000000000e+00  1.5898073736110106e-02 -1.3258119684282640e-01 0.0000000000000000e+00  7.2365044222978528e-02 -1.1138905379794775e-01 0.0000000000000000e+00  5.8658760055671506e-02 5.7783242006345988e-03 0.0000000000000000e+00  -1.7934165106304866e-02 -7.4225332689793880e-02 0.0000000000000000e+00  3.7381162287883740e-02 -4.4870866993958390e-02 0.0000000000000000e+00  7.2845688757522242e-03 -5.6874293462672261e-02 0.0000000000000000e+00  -2.1799837520974072e-02 -5.7065279817953077e-02 0.0000000000000000e+00  -3.3889542392528726e-02 -1.2958438039140174e-01 0.0000000000000000e+00  -5.7926135589022487e-02 -2.3499291508169408e-02 0.0000000000000000e+00  -2.9742549548763982e-02 -6.4041734766859246e-02 0.0000000000000000e+00  5.0551935265899135e-02 -4.6953777606274470e-02 0.0000000000000000e+00  -6.3116785567229078e-02 3.0670927645460172e-03 0.0000000000000000e+00  -6.2330144832792117e-02 -5.9421763330321870e-02 0.0000000000000000e+00  -1.9793016764475545e-02 -1.5898827547382831e-02 0.0000000000000000e+00  3.6642183462749237e-02 -6.2353707852998526e-03 0.0000000000000000e+00  -3.9278164794865976e-02 1.0278530623420051e-01 0.0000000000000000e+00  -6.0391306776657140e-02 -4.4794363892679614e-02 0.0000000000000000e+00  1.3616939103120665e-02 -8.4059748950143828e-02 0.0000000000000000e+00  6.8300758699784781e-04 -7.7916302572574134e-02 0.0000000000000000e+00  1.2773078216733608e-01 4.6082180300937636e-02 0.0000000000000000e+00  7.8517973911212940e-03 -6.3421142919909079e-02 0.0000000000000000e+00  -2.9204548280890429e-02 1.4102842967987431e-02 0.0000000000000000e+00  -5.5211396373557951e-02 -1.2354585436936377e-01 0.0000000000000000e+00  -1.1334867184832532e-01 -7.6331742949754727e-02 0.0000000000000000e+00  -1.1992757633517391e-02 1.0626627619383461e-01 0.0000000000000000e+00  6.1588541193347023e-02 1.1365497057605081e-01 0.0000000000000000e+00  -4.7446696698925261e-02 1.2152510309386225e-01 0.0000000000000000e+00  1.0246268194798543e-01 -9.1424941806400442e-02 0.0000000000000000e+00  -6.0897389943767762e-02 2.6726954983970673e-02 0.0000000000000000e+00  -1.4908742585214668e-02 -1.3499375230016517e-01 0.0000000000000000e+00  -1.1445315211581485e-01 -8.9970960116525934e-03 0.0000000000000000e+00  -8.3077483975758398e-02 -2.2428658178582462e-02 0.0000000000000000e+00  2.8972850719640272e-02 1.8027133785398372e-02 0.0000000000000000e+00  -3.7450390643503544e-03 5.5816244602933274e-02 0.0000000000000000e+00  1.3389752412832392e-01 -8.0685975268136815e-03 0.0000000000000000e+00  7.2869671813692027e-02 -3.2072431918858946e-02 0.0000000000000000e+00  9.7879408254481035e-02 -4.5784555956540907e-02 0.0000000000000000e+00  -1.3349099082326416e-01 -3.5991152901222498e-02 0.0000000000000000e+00  -9.1373377524929161e-02 2.6385467294900301e-02 0.0000000000000000e+00  4.5981980285379906e-02 -9.0088177555203944e-02 0.0000000000000000e+00  -5.9219433333152036e-02 -8.0082116293461236e-02 0.0000000000000000e+00  -4.2825585344291629e-03 -5.7167681559391774e-02 0.0000000000000000e+00  -3.0319969591144160e-02 -8.5471186220811568e-02 0.0000000000000000e+00  9.1509954875724497e-02 -1.0498681590519569e-01 0.0000000000000000e+00  9.1289931213949960e-02 2.3556154462116712e-02 0.0000000000000000e+00  9.6116048081541700e-02 -6.8370912472445700e-02 0.0000000000000000e+00  -1.2849016480269429e-01 -5.2612587062652268e-02 0.0000000000000000e+00  -1.4105273335733581e-02 8.3741502069032830e-02 0.0000000000000000e+00  -1.3885509289057116e-01 2.0332666537140456e-02 0.0000000000000000e+00  1.7254319664277078e-03 -5.4721019193050488e-02 0.0000000000000000e+00  1.3278191792456265e-01 -4.2500026616452365e-02 0.0000000000000000e+00  1.0695865497935847e-01 2.1432593437400640e-02 0.0000000000000000e+00  8.2034189302613719e-02 -5.3167124050679491e-02 0.0000000000000000e+00  2.7315346312558064e-02 -1.9638051660583605e-02 0.0000000000000000e+00  1.1276335951214313e-01 8.0802159051827346e-02 0.0000000000000000e+00  3.0103626199118709e-02 1.0718549116280178e-01 0.0000000000000000e+00  2.5892351195751775e-03 -6.8751497003380568e-02 0.0000000000000000e+00  -9.2952465427842135e-02 -6.9377516297290470e-02 0.0000000000000000e+00  -1.0402019346799198e-01 -8.8362477502763548e-02 0.0000000000000000e+00  -1.5930338501904895e-02 -5.5170383536421286e-02 0.0000000000000000e+00  -5.8125260977724925e-03 -1.5425742670758186e-02 0.0000000000000000e+00  -4.2060271200967487e-03 -5.9834634768140237e-02 0.0000000000000000e+00  -1.3859155996266820e-01 -1.7840372950641593e-02 0.0000000000000000e+00  -1.0616614036578731e-01 9.0615511711809149e-02 0.0000000000000000e+00  -1.2347616731415513e-01 6.6146951173324045e-02 0.0000000000000000e+00  8.6504292244707584e-02 9.2515090110559389e-02 0.0000000000000000e+00  -1.0352401613918981e-01 7.3936103678366519e-02 0.0000000000000000e+00  8.8811255626132252e-03 5.7322531503358955e-02 0.000