<?xml version="1.0"?>
<VTKFile type="UnstructuredGrid"  version="0.1"  >
<UnstructuredGrid>
<Piece  NumberOfPoints="1417" NumberOfCells="2668">
<Points>
<DataArray  type="Float64"  NumberOfComponents="3"  format="ascii">-0.9957245640160993 0.2652516088405378 0  -0.9892074031239041 0.1536475400447186 0  -0.9697672033852727 0.04292250473694004 0  -0.937534907892546 -0.06540923979216121 0  -0.8930664036331815 -0.1693221007639413 0  -0.8368735260233531 -0.2677613602275878 0  -0.7700756625565232 -0.3590279245192172 0  -0.6945071285958592 -0.4407543205934807 0  -0.6124178947529766 -0.5120753172371856 0  -0.5284847101379584 -0.5706632215290661 0  -0.4433830127217938 -0.6183489391531802 0  -0.3553421598441517 -0.6569404706372995 0  -0.2655103426872373 -0.6864836323569309 0  -0.1744033661626616 -0.7072645939911504 0  -0.08455391209127211 -0.7190864879833617 0  -0.001682234190486553 -0.7224563463140995 0  0.08143325200285575 -0.71864034102143 0  0.1700261447666079 -0.7064424262436338 0  0.2598847193747323 -0.68552341460489 0  0.3488912159405139 -0.6558336144532523 0  0.4361361965648751 -0.6172947278119412 0  0.5205096458626631 -0.5698918949668959 0  0.6030537678819906 -0.5122831387746025 0  0.6824867894633302 -0.4438375637166476 0  0.7579891087521381 -0.363298326201304 0  0.8254777077730474 -0.2727801173929641 0  0.8825627391663102 -0.1746725240708198 0  0.9273879601200569 -0.07185411035177328 0  0.9605274521913724 0.03637223299168325 0  0.9809371303131578 0.1481160520244199 0  0.9881878879917027 0.2591743597754341 0  0.9827179722112207 0.3707091709594545 0  0.9644936188528589 0.4811289411803631 0  0.9337242522529299 0.5886021375997538 0  0.8916096058876226 0.6903324294866789 0  0.8379164109590839 0.7870871288443441 0  0.7737495880973843 0.8770193355993153 0  0.6989923977797913 0.9601610787104169 0  0.6163381219495346 1.033525518458716 0  0.5258899454342196 1.097266940422887 0  0.4287072112721206 1.150668142127202 0  0.3263982819794807 1.192782210059712 0  0.2203662356687274 1.223266120075889 0  0.1107789696459389 1.241992891715885 0  -0.001029751844076522 1.248391780982466 0  -0.1113009046469872 1.242555856365158 0  -0.2206623207097601 1.224508340830153 0  -0.3280092334256176 1.194186156929456 0  -0.4306965423016628 1.152406537761426 0  -0.528046047952297 1.099550222736194 0  -0.6184563205624973 1.036559641701707 0  -0.70191791853414 0.9633719977661481 0  -0.7762533967751933 0.8816878010170286 0  -0.8414828097394187 0.7915319537399589 0  -0.8958634756198807 0.6950381762871236 0  -0.9390420040876151 0.5925528073725518 0  -0.9701911480496783 0.4865841650766169 0  -0.9893135000646694 0.376520838121945 0  2.670784032485898 3.392700900221928e-07 0  2.662961632852603 0.2044468535541729 0  2.639482611715891 0.4076910354664831 0  2.600528672998886 0.6085463104316355 0  2.546317982229737 0.805827719172409 0  2.477158434000535 0.9983820253549878 0  2.393464901613346 1.185078806129586 0  2.29572514100545 1.364818427182547 0  2.184512854979036 1.53654945603082 0  2.060482764484212 1.6992671954509 0  1.924372229613254 1.852015762930092 0  1.776940744757839 1.993879721637442 0  1.619114070956287 2.12407131823512 0  1.451758709370764 2.241776725460747 0  1.275900048925352 2.346327147592297 0  1.092539195083199 2.437115418998927 0  0.9027806994810653 2.513595837072259 0  0.7077097374859433 2.575313694505672 0  0.5084938171091746 2.621932117473697 0  0.3062932397706241 2.653179945686822 0  0.1023003640845013 2.668829749581922 0  -0.1022938351960612 2.668841007270838 0  -0.3062953067231879 2.653167139625865 0  -0.5084902075673431 2.621950060091893 0  -0.7077086165581402 2.575316247309725 0  -0.9027719677488155 2.513584501325612 0  -1.092547666187913 2.437111939261654 0  -1.275893414325294 2.346330484502781 0  -1.451762240483971 2.241781170171584 0  -1.619103499590742 2.124069812812623 0  -1.776952594164562 1.99389158826644 0  -1.924363948400758 1.852021560747486 0  -2.060491588688754 1.699279484539905 0  -2.18452689748048 1.536557813348495 0  -2.295727227884108 1.364820348460049 0  -2.393479077036744 1.18508008737993 0  -2.477159543463966 0.9983830605369903 0  -2.546328470884173 0.8058350149958396 0  -2.600542733371222 0.6085497480888702 0  -2.639483368658835 0.4076909114465292 0  -2.662960010967624 0.2044519039499667 0  -2.670780504377397 1.928069695371068e-07 0  -2.66294450244174 -0.2044490088629496 0  -2.639482534906787 -0.4076967022620353 0  -2.600541287065246 -0.6085470256469309 0  -2.546325596725032 -0.8058381158275786 0  -2.477168332162051 -0.998390891435468 0  -2.393476582535104 -1.185081732314431 0  -2.295735186520382 -1.364830423910388 0  -2.184521051797763 -1.536560956277872 0  -2.060491118819954 -1.699274555575293 0  -1.924366216630939 -1.852018903552679 0  -1.776956095130589 -1.993888219052866 0  -1.61910531955081 -2.124067133218752 0  -1.451753143904588 -2.241766129985118 0  -1.275889735256182 -2.346331493274255 0  -1.092536638883262 -2.437113615232735 0  -0.9027794458214914 -2.513592713027932 0  -0.7077156015161907 -2.575326498863366 0  -0.5084932691273483 -2.621934086875905 0  -0.3062935921411238 -2.653178991205027 0  -0.1022978613361618 -2.668827804492342 0  0.1022956866875368 -2.668839593126618 0  0.3062983159003852 -2.65317808128417 0  0.5084936137439834 -2.621933590472959 0  0.7077162301040404 -2.575326288327092 0  0.9027776120407471 -2.513598109688034 0  1.092543158948468 -2.437111646834979 0  1.275889176205694 -2.346332500681104 0  1.451752933487839 -2.241767024362894 0  1.619105451172629 -2.124068716138387 0  1.776952241975888 -1.993891109120203 0  1.924366834178766 -1.852017725602107 0  2.060488411940316 -1.699280506471844 0  2.184527051211843 -1.536554213410462 0  2.295734722822604 -1.364828336303729 0  2.393476350117907 -1.18508416493158 0  2.477157759681155 -0.9983822243876328 0  2.546328228890421 -0.8058271026585723 0  2.600541507489981 -0.608550095873273 0  2.639495176669739 -0.4076944577269576 0  2.66295844414894 -0.204454891823007 0  -0.00502767272989715 0.271691998708293 0  -0.1274361081565616 -1.693304982725333 0  0.8673794641607933 -1.48363194526728 0  -1.062262096044142 -1.362889329187949 0  1.543388478473214 -0.852167103085089 0  -1.672071506408583 -0.6147383264727899 0  1.815577623204061 -0.06650161683915139 0  -1.82997179678983 0.1938891028672704 0  1.720449985490261 0.7523454318629526 0  -1.622016625314411 0.9772856126210735 0  1.280309577969405 1.434718728455496 0  -1.136227249497548 1.566698588975855 0  0.5972532070526454 1.863026660790739 0  -0.4648525809293444 1.901402042119668 0  0.4546677836273351 -1.971961929914659 0  -0.7323610895503493 -1.897786671713347 0  -1.655978014708998 -1.267482136367046 0  1.45481394390936 -1.516956119099764 0  0.06280317734869789 1.783359813577245 0  0.3237382460910939 -1.423388524294858 0  2.037599367561032 -0.5726274833765613 0  -0.4726906597828188 -1.250834060852091 0  0.4903013306801011 0.357066421123949 0  -0.5061883162542362 0.2508814819098547 0  0.9526612409716941 -0.9534492512014254 0  0.2951848815100794 -0.1050210901029822 0  -2.121626494740387 -0.2541386500990533 0  -0.260849367758051 0.6915091818724263 0  -0.215186049300441 -0.1579648629685464 0  -1.129826987708347 -0.814587606004553 0  2.106667386589213 0.3919423231577358 0  -0.0003487763863641884 -2.185604261881073 0  0.9443143366912663 -1.972764677802061 0  -1.209984113793679 -1.827475728580355 0  1.369280393048855 -0.3689706915987329 0  -2.052426635975536 0.7240851613015898 0  1.829008380993715 -1.233281890456617 0  -1.443995457781259 -0.1661579039119793 0  1.751598850316339 1.320365247426892 0  -1.994897685352699 -0.9546010586667573 0  -1.655359379210781 1.460327710599863 0  1.087553812074907 1.894091155995584 0  0.1726463273316716 2.226899221387667 0  1.487581269609219 0.297476131347261 0  -0.05681239829051063 -1.24211672925038 0  -0.927873002229066 1.997594967396865 0  -1.463154974112021 0.5048118640276946 0  2.235351160747224 -0.1930687740583249 0  0.2144212832824464 0.7441798740500988 0  1.292830538047124 0.949979987868194 0  -2.252185750587852 0.1414046453004342 0  0.8203637052160366 1.451904749861503 0  0.5302642624086729 -1.073239889924988 0  -1.165772876499246 1.107701954856047 0  -0.8026053600447861 -1.044412578525057 0  -0.6836388205274374 1.511689882696215 0  -0.3615558029825959 -2.028015712818252 0  2.128174296753307 0.7966192660888158 0  -1.996334678001654 1.113577670190225 0  -0.3533164369376989 2.27498557361592 0  1.450489236597265 1.784678304590411 0  -1.337354467037509 1.888394318530878 0  -1.588890220635932 -1.652908871797923 0  1.3025006657605 -1.153807869427489 0  0.3725833004253494 1.56049048090262 0  -1.174340013687235 -0.4487789165048813 0  1.056951316685216 -0.6007743506858031 0  -2.045113625055853 -0.6022195515681521 0  0.5483303325345104 2.241009369904673 0  -0.2565414505077894 1.590501391957345 0  2.090795220882842 -0.9511887026740419 0  0.7031846562081469 -2.228343723389856 0  0.3302472828770237 -2.304891297026253 0  1.321249240562228 -1.881754700356789 0  1.002972650797154 1.146085589778944 0  1.31351442562807 -0.02733191823458542 0  1.302135606490116 0.5909926922815757 0  -0.4756750486995671 -1.616443496267244 0  -1.477147473954214 0.1671211523912919 0  -0.6450992909180122 -2.236520963405782 0  -1.318930621477719 0.8062598776128715 0  -1.319113534167156 -1.121888565788706 0  1.731344387526795 -0.396185739456346 0  0.194150931477649 -1.059304287149236 0  -1.655291123672315 -0.9391862359861951 0  0.6072352466413764 0.02435100623754048 0  -0.5480791176062552 -0.09604640540748501 0  0.04746534650954273 -0.3437407264391091 0  -1.796559389199183 -0.1376757411547251 0  0.6912451705351972 -1.752042411319265 0  0.1399238477989438 -1.880789252745252 0  2.039360870651596 1.13248116768306 0  -0.7463174465553982 -1.450406444755318 0  -0.5863639651303318 0.5762225170726836 0  -1.012496937086874 -2.106843952763283 0  -1.985699501772358 -1.277250689157055 0  -0.1633923307927707 2.014129524859697 0  0.8298356991594978 2.086138926298686 0  -0.6531445611906903 2.162769127223013 0  1.779
[...]
<PointData  Vectors="f_4537-0"> 
<DataArray  type="Float64"  Name="f_4537-0"  NumberOfComponents="3" format="ascii">5.6993739110240259e-03 -7.1055577184528651e-02 0.0000000000000000e+00  2.1224963435771720e-02 -8.1026780314103874e-02 0.0000000000000000e+00  3.9444780385568423e-02 -9.0035953141637426e-02 0.0000000000000000e+00  6.0360433197312026e-02 -9.7433767061674961e-02 0.0000000000000000e+00  8.3243163587240640e-02 -1.0161964552851516e-01 0.0000000000000000e+00  1.0774259897251842e-01 -1.0336195276548216e-01 0.0000000000000000e+00  1.3223392540892778e-01 -1.0027172155566538e-01 0.0000000000000000e+00  1.5299330553368773e-01 -8.9671935040347400e-02 0.0000000000000000e+00  1.6495929752995195e-01 -7.1195090801564914e-02 0.0000000000000000e+00  1.6321136894363841e-01 -4.5113598259610102e-02 0.0000000000000000e+00  1.5115350448672776e-01 -1.7925383930628161e-02 0.0000000000000000e+00  1.3409893155439553e-01 4.9946847092166031e-03 0.0000000000000000e+00  1.1206901917412068e-01 2.4422814877270903e-02 0.0000000000000000e+00  8.6996353376473781e-02 3.9444532705627339e-02 0.0000000000000000e+00  5.4887886229049006e-02 5.0056067006428159e-02 0.0000000000000000e+00  7.8342982937309440e-03 5.4769051823309184e-02 0.0000000000000000e+00  -4.0814316158524627e-02 5.1160342186339434e-02 0.0000000000000000e+00  -7.5490388056105306e-02 4.1452297834105895e-02 0.0000000000000000e+00  -1.0294358909399695e-01 2.6873230383658801e-02 0.0000000000000000e+00  -1.2540227144591490e-01 8.1085003603759507e-03 0.0000000000000000e+00  -1.4356767538130144e-01 -1.4312556235375565e-02 0.0000000000000000e+00  -1.5648122996333722e-01 -3.9300284539990453e-02 0.0000000000000000e+00  -1.6211451737977381e-01 -6.5832716850873288e-02 0.0000000000000000e+00  -1.5758565781182921e-01 -8.9731097394919898e-02 0.0000000000000000e+00  -1.3935641840769766e-01 -1.0352002789115053e-01 0.0000000000000000e+00  -1.1479189414727299e-01 -1.0823815790399281e-01 0.0000000000000000e+00  -8.9625281284609434e-02 -1.0698861209459580e-01 0.0000000000000000e+00  -6.6728053637790191e-02 -1.0405175335347069e-01 0.0000000000000000e+00  -4.4859385231657729e-02 -9.6648600065214044e-02 0.0000000000000000e+00  -2.5631755379955733e-02 -8.5850619164930683e-02 0.0000000000000000e+00  -9.7837036768241310e-03 -7.6936736863059157e-02 0.0000000000000000e+00  3.8589820375582113e-03 -6.5829074997242054e-02 0.0000000000000000e+00  1.5020367204432472e-02 -5.3327672387886528e-02 0.0000000000000000e+00  2.3590872402835857e-02 -4.0504153874290745e-02 0.0000000000000000e+00  3.0819369594827627e-02 -3.0152474118762717e-02 0.0000000000000000e+00  3.5369437362431325e-02 -1.8266718158907683e-02 0.0000000000000000e+00  3.8339477132563769e-02 -7.4567724115048480e-03 0.0000000000000000e+00  3.7375876587879713e-02 5.1705233208986070e-03 0.0000000000000000e+00  3.6353181374720892e-02 1.4871449512609311e-02 0.0000000000000000e+00  3.3394545047958815e-02 2.3896432184556629e-02 0.0000000000000000e+00  2.8692991772388814e-02 3.1852175451606853e-02 0.0000000000000000e+00  2.3290149762736748e-02 3.8108069033244561e-02 0.0000000000000000e+00  1.7375228630183391e-02 4.2720010620212509e-02 0.0000000000000000e+00  9.3589723978480810e-03 4.6030963042717532e-02 0.0000000000000000e+00  -5.5762769170672412e-04 4.7365520162283126e-02 0.0000000000000000e+00  -7.3235888437402858e-03 4.6734678059758103e-02 0.0000000000000000e+00  -1.4835564207757414e-02 4.4325423962034441e-02 0.0000000000000000e+00  -2.3230093742063373e-02 3.9580469264980184e-02 0.0000000000000000e+00  -2.9108801316132804e-02 3.3598490626076429e-02 0.0000000000000000e+00  -3.4159675641670925e-02 2.5947439628066945e-02 0.0000000000000000e+00  -3.6597436226080096e-02 1.7892542752108082e-02 0.0000000000000000e+00  -3.8662808067960630e-02 7.7386460962857633e-03 0.0000000000000000e+00  -3.8126764788097879e-02 -2.3307154397178950e-03 0.0000000000000000e+00  -3.6875570371151412e-02 -1.4655314868761506e-02 0.0000000000000000e+00  -3.2670316600505726e-02 -2.5980262116577005e-02 0.0000000000000000e+00  -2.6609900082489226e-02 -3.8197012842427942e-02 0.0000000000000000e+00  -1.7894131034882233e-02 -4.8525040459387714e-02 0.0000000000000000e+00  -7.3849456608575817e-03 -6.0703689474586833e-02 0.0000000000000000e+00  1.5180847101471598e-01 -1.3855736432201266e-07 0.0000000000000000e+00  1.5139818808165803e-01 1.1621109728955246e-02 0.0000000000000000e+00  1.5002674375859421e-01 2.3169713673180877e-02 0.0000000000000000e+00  1.4781261457609290e-01 3.4582176359108721e-02 0.0000000000000000e+00  1.4473746222931291e-01 4.5801401832247284e-02 0.0000000000000000e+00  1.4080155447596182e-01 5.6742445642470378e-02 0.0000000000000000e+00  1.3604722142186537e-01 6.7355273140744673e-02 0.0000000000000000e+00  1.3049077010856486e-01 7.7572342354374546e-02 0.0000000000000000e+00  1.2416692689254928e-01 8.7335236618583167e-02 0.0000000000000000e+00  1.1712314598827932e-01 9.6588810835136957e-02 0.0000000000000000e+00  1.0941884558944073e-01 1.0528525235669460e-01 0.0000000000000000e+00  1.0099257243263822e-01 1.1333295833778322e-01 0.0000000000000000e+00  9.2074728647616483e-02 1.2076852046531997e-01 0.0000000000000000e+00  8.2536196488457586e-02 1.2745339913407291e-01 0.0000000000000000e+00  7.2559646568730790e-02 1.3338911020824742e-01 0.0000000000000000e+00  6.2109333504157052e-02 1.3856448963777426e-01 0.0000000000000000e+00  5.1343899418705770e-02 1.4290568676240470e-01 0.0000000000000000e+00  4.0235307155006235e-02 1.4638233215291904e-01 0.0000000000000000e+00  2.8898252943547219e-02 1.4903567897657419e-01 0.0000000000000000e+00  1.7407882267442533e-02 1.5084946548514458e-01 0.0000000000000000e+00  5.8176863377966855e-03 1.5171063454652989e-01 0.0000000000000000e+00  -5.8025425345188276e-03 1.5173819171535080e-01 0.0000000000000000e+00  -1.7411539622629601e-02 1.5081815661035644e-01 0.0000000000000000e+00  -2.8894195896519426e-02 1.4907856252745941e-01 0.0000000000000000e+00  -4.0226483859870793e-02 1.4638997115005623e-01 0.0000000000000000e+00  -5.1318982997562261e-02 1.4287901797742036e-01 0.0000000000000000e+00  -6.2138839724467779e-02 1.3855222244673387e-01 0.0000000000000000e+00  -7.2539259042137039e-02 1.3339894156505577e-01 0.0000000000000000e+00  -8.2544639215309218e-02 1.2746487938922216e-01 0.0000000000000000e+00  -9.2042145338102371e-02 1.2076926009841712e-01 0.0000000000000000e+00  -1.0103341969961770e-01 1.1335198732872627e-01 0.0000000000000000e+00  -1.0939626680932968e-01 1.0530050171863781e-01 0.0000000000000000e+00  -1.1714207408076147e-01 9.6622172215104926e-02 0.0000000000000000e+00  -1.2420328312953331e-01 8.7352946480034388e-02 0.0000000000000000e+00  -1.3049569510444212e-01 7.7576499070948199e-02 0.0000000000000000e+00  -1.3608110260415060e-01 6.7360539345531448e-02 0.0000000000000000e+00  -1.4080435995058410e-01 5.6745406501855021e-02 0.0000000000000000e+00  -1.4476594736731502e-01 4.5809921855872529e-02 0.0000000000000000e+00  -1.4784504501572196e-01 3.4598766423683251e-02 0.0000000000000000e+00  -1.5002871598201370e-01 2.3169035331573426e-02 0.0000000000000000e+00  -1.5139398008551097e-01 1.1634544797198143e-02 0.0000000000000000e+00  -1.5179977855605650e-01 -3.2976834529234961e-07 0.0000000000000000e+00  -1.5135624244679408e-01 -1.1624747313240270e-02 0.0000000000000000e+00  -1.5002725526617450e-01 -2.3182007357152378e-02 0.0000000000000000e+00  -1.4784214373843810e-01 -3.4590980481020640e-02 0.0000000000000000e+00  -1.4475777415786686e-01 -4.5822198728311406e-02 0.0000000000000000e+00  -1.4082479141000148e-01 -5.6767746353389582e-02 0.0000000000000000e+00  -1.3607645515831585e-01 -6.7361593813362625e-02 0.0000000000000000e+00  -1.3051348914731772e-01 -7.7604739117273461e-02 0.0000000000000000e+00  -1.2418871923051840e-01 -8.7360674176926501e-02 0.0000000000000000e+00  -1.1714342393735007e-01 -9.6607265881437240e-02 0.0000000000000000e+00  -1.0940234394708845e-01 -1.0529440021839534e-01 0.0000000000000000e+00  -1.0104201182528616e-01 -1.1334404400070996e-01 0.0000000000000000e+00  -9.2050668054748652e-02 -1.2076045599328100e-01 0.0000000000000000e+00  -8.2521958987630512e-02 -1.2742860747220577e-01 0.0000000000000000e+00  -7.2529883401399042e-02 -1.3340239526551756e-01 0.0000000000000000e+00  -6.2102231580703729e-02 -1.3856071534724046e-01 0.0000000000000000e+00  -5.1340603306826070e-02 -1.4289807190019294e-01 0.0000000000000000e+00  -4.0244406419223291e-02 -1.4641511590657891e-01 0.0000000000000000e+00  -2.8902942228468186e-02 -1.4903912117112561e-01 0.0000000000000000e+00  -1.7406032773042580e-02 -1.5084746069565275e-01 0.0000000000000000e+00  -5.8144123055100909e-03 -1.5170575212538914e-01 0.0000000000000000e+00  5.8086984309475443e-03 -1.5173475766932568e-01 0.0000000000000000e+00  1.7418008295775073e-02 -1.5084516607349485e-01 0.0000000000000000e+00  2.8903799622687409e-02 -1.4903784413816273e-01 0.0000000000000000e+00  4.0249745645946564e-02 -1.4641330829802285e-01 0.0000000000000000e+00  5.1332412978448698e-02 -1.4291258183000888e-01 0.0000000000000000e+00  6.2122970213755443e-02 -1.3855327792165970e-01 0.0000000000000000e+00  7.2523354690070069e-02 -1.3340737754651624e-01 0.0000000000000000e+00  8.2522018791541349e-02 -1.2743032366720164e-01 0.0000000000000000e+00  9.2050724239940901e-02 -1.2076439998597593e-01 0.0000000000000000e+00  1.0103181631622701e-01 -1.1335168707132705e-01 0.0000000000000000e+00  1.0940398319692066e-01 -1.0529124971310913e-01 0.0000000000000000e+00  1.1713388285063771e-01 -9.6625775245484297e-02 0.0000000000000000e+00  1.2420682694447720e-01 -8.7339637666243780e-02 0.0000000000000000e+00  1.3051376339268325e-01 -7.7596583588271317e-02 0.0000000000000000e+00  1.3607244890138256e-01 -6.7374537340476950e-02 0.0000000000000000e+00  1.4079954621642821e-01 -5.6745169301552177e-02 0.0000000000000000e+00  1.4476652860767589e-01 -4.5787447605672035e-02 0.0000000000000000e+00  1.4784276033489324e-01 -3.4595982958861578e-02 0.0000000000000000e+00  1.5005739971735277e-01 -2.3176782575582762e-02 0.0000000000000000e+00  1.5138968195734495e-01 -1.1646711037426339e-02 0.0000000000000000e+00  -3.7771070202320118e-03 7.2255247598417213e-02 0.0000000000000000e+00  2.4507649614293231e-03 -5.0879791134738721e-02 0.0000000000000000e+00  8.0724400808756865e-03 -7.4809444999178937e-02 0.0000000000000000e+00  -1.9694368464508467e-02 -7.3629752065851747e-02 0.0000000000000000e+00  4.6514037579470313e-02 -5.6118635828964543e-02 0.0000000000000000e+00  -5.0108507892357566e-02 -5.1923121505012437e-02 0.0000000000000000e+00  6.6483051281718761e-02 -3.8977965133217357e-02 0.0000000000000000e+00  -7.7050160006842533e-02 -3.2957124854948512e-02 0.0000000000000000e+00  9.0614164927779503e-02 -5.3646430526306564e-03 0.0000000000000000e+00  -9.4791010400336675e-02 9.3756292791199614e-03 0.0000000000000000e+00  8.8234242232297908e-02 4.6464669247273237e-02 0.0000000000000000e+00  -8.1429937914554149e-02 6.0632633597362047e-02 0.0000000000000000e+00  4.8123574155433960e-02 9.1472104464929288e-02 0.0000000000000000e+00  -3.6188614674254188e-02 9.6980140539559015e-02 0.0000000000000000e+00  1.3928322723506508e-02 -1.0195872063514690e-01 0.0000000000000000e+00  -2.8149012447436273e-02 -1.0247070888860144e-01 0.0000000000000000e+00  -8.3856854011612150e-02 -7.6265905141740822e-02 0.0000000000000000e+00  7.4515208659674564e-02 -9.0531088566036838e-02 0.0000000000000000e+00  5.9027846114570685e-03 8.5394380712808263e-02 0.0000000000000000e+00  -2.6694507060412577e-02 -2.5830286493801462e-02 0.0000000000000000e+00  1.0552814938269653e-01 -4.4757206071076493e-02 0.0000000000000000e+00  4.9706509145974000e-02 -4.0375989623049467e-02 0.0000000000000000e+00  1.5028694195177033e-02 2.8457567025975083e-02 0.0000000000000000e+00  -1.1695217920734226e-02 2.2709293842020570e-02 0.0000000000000000e+00  -2.9698213853881276e-02 -6.5255276791116174e-02 0.0000000000000000e+00  -4.9665602846560998e-02 7.8596681781477301e-02 0.0000000000000000e+00  -1.1220591855359462e-01 -3.4854678279457665e-02 0.0000000000000000e+00  -1.8183723403746636e-02 5.5521339613647254e-02 0.0000000000000000e+00  4.8047252608803777e-02 9.3151938371800982e-02 0.0000000000000000e+00  2.5188111347411529e-02 -5.6570492230405264e-02 0.0000000000000000e+00  1.1905514164495405e-01 -5.0496946577884986e-03 0.0000000000000000e+00  -8.1094546260834593e-04 -1.2203290598316660e-01 0.0000000000000000e+00  4.6246203046779115e-02 -1.1624704457746003e-01 0.0000000000000000e+00  -6.3868615684420635e-02 -1.0852244130793259e-01 0.0000000000000000e+00  -1.6635473969963357e-02 -5.8379329909065018e-02 0.0000000000000000e+00  -1.2397867377503945e-01 1.2992312154587328e-02 0.0000000000000000e+00  1.0241294271333258e-01 -7.5060680437664673e-02 0.0000000000000000e+00  6.0953318078948114e-04 -5.9892038752323982e-02 0.0000000000000000e+00  1.1613697608222322e-01 5.2200209689018215e-02 0.0000000000000000e+00  -1.0975224183932891e-01 -6.2113813724522467e-02 0.0000000000000000e+00  -1.1249790928667507e-01 6.3683915529340593e-02 0.0000000000000000e+00  8.0911723178327136e-02 9.8136064188382541e-02 0.0000000000000000e+00  1.4211140741747542e-02 1.3089630838290847e-01 0.0000000000000000e+00  3.1032692717971561e-02 -5.0219158041849149e-02 0.0000000000000000e+00  1.4364414475664727e-02 1.3640892204798860e-02 0.0000000000000000e+00  -6.8956458497556716e-02 1.0898788791158265e-01 0.0000000000000000e+00  -4.7104587592364258e-02 -3.9816673714893426e-02 0.0000000000000000e+00  1.2624938935740507e-01 -2.6226410063509616e-02 0.0000000000000000e+00  1.3253782853500179e-02 5.7377133192518012e-02 0.0000000000000000e+00  6.4477243957785299e-02 -1.0204411792553226e-02 0.0000000000000000e+00  -1.3067392297841232e-01 -1.2480103675896654e-02 0.0000000000000000e+00  5.8929664431839099e-02 4.2592945885302998e-02 0.0000000000000000e+00  -6.9212652539138914e-02 -5.3443429982772288e-02 0.0000000000000000e+00  -6.6995103013964899e-02 6.0422485647204762e-03 0.0000000000000000e+00  4.3623576592240691e-02 -6.4175338372808255e-02 0.0000000000000000e+00  -5.0453389810681377e-02 5.1882392005531131e-02 0.0000000000000000e+00  -1.3399577949479899e-02 -1.0614758039780545e-01 0.0000000000000000e+00  1.3130689079110106e-01 2.4321186895890169e-02 0.0000000000000000e+00  -1.2840736640776640e-01 4.3949185925874830e-02 0.0000000000000000e+00  -2.5776626166470841e-02 1.3501760238886129e-01 0.0000000000000000e+00  1.0170008121509655e-01 9.2517311332654978e-02 0.0000000000000000e+00  -9.4101650435041553e-02 1.0182026744454527e-01 0.0000000000000000e+00  -9.1614418558771324e-02 -9.9941241009632462e-02 0.0000000000000000e+00  3.5473797281941603e-02 -6.8385679932264007e-02 0.0000000000000000e+00  2.9423016477784524e-02 5.8635188820648915e-02 0.0000000000000000e+00  5.4573224164337714e-02 -6.4855069616565356e-02 0.0000000000000000e+00  -6.2606859111277557e-02 -6.4241020451306946e-02 0.0000000000000000e+00  -1.0624431539580279e-01 -4.8125840112872013e-02 0.0000000000000000e+00  4.1643656269741286e-02 1.3153032795850370e-01 0.0000000000000000e+00  -2.0235955697790613e-02 6.3818420017298524e-02 0.0000000000000000e+00  1.2066137899965779e-01 -6.0152850717833675e-02 0.0000000000000000e+00  3.7139135319329879e-02 -1.3346974799605879e-01 0.0000000000000000e+00  1.6451599937674071e-02 -1.3621133491328649e-01 0.0000000000000000e+00  7.4465055854219780e-02 -1.1440544687611832e-01 0.0000000000000000e+00  5.8895976411833188e-02 7.0344190371121442e-03 0.0000000000000000e+00  -1.8631534104469685e-02 -7.2614316329424874e-02 0.0000000000000000e+00  3.6817764370753604e-02 -4.3577187772319684e-02 0.0000000000000000e+00  6.2846922030769768e-03 -5.9005533861472753e-02 0.0000000000000000e+00  -2.2035710645956601e-02 -5.5368159213957928e-02 0.0000000000000000e+00  -3.4878457785421139e-02 -1.3313066714151608e-01 0.0000000000000000e+00  -5.7951710141309135e-02 -2.2344702215221571e-02 0.0000000000000000e+00  -3.2688852205911868e-02 -6.5485795918375042e-02 0.0000000000000000e+00  5.3481704605043534e-02 -4.6175738708272622e-02 0.0000000000000000e+00  -6.0222522332969215e-02 3.7800310223190829e-03 0.0000000000000000e+00  -6.5695704203088401e-02 -6.0321762709730657e-02 0.0000000000000000e+00  -2.0478440190065502e-02 -1.3754107082333718e-02 0.0000000000000000e+00  3.5832013231253949e-02 -2.2765639787380994e-03 0.0000000000000000e+00  -3.4959461497718933e-02 1.0737477869005649e-01 0.0000000000000000e+00  -6.2971352786652321e-02 -4.3539567639598258e-02 0.0000000000000000e+00  1.4820440541605565e-02 -8.6619711353371778e-02 0.0000000000000000e+00  1.0014594097333019e-03 -8.0737113608116334e-02 0.0000000000000000e+00  1.3059950387479058e-01 4.8298894898613838e-02 0.0000000000000000e+00  6.2974227378640880e-03 -6.5297104600076553e-02 0.0000000000000000e+00  -2.9063558318836013e-02 1.5205466210624560e-02 0.0000000000000000e+00  -5.6781185059378125e-02 -1.2688005936062474e-01 0.0000000000000000e+00  -1.1666030256432026e-01 -7.8164754209135073e-02 0.0000000000000000e+00  -1.2311435145234979e-02 1.0939934972059327e-01 0.0000000000000000e+00  6.2784624107261947e-02 1.1695226811860951e-01 0.0000000000000000e+00  -4.8456316835161474e-02 1.2490213148405668e-01 0.0000000000000000e+00  1.0535484344792008e-01 -9.3821445460407493e-02 0.0000000000000000e+00  -6.1515027123289524e-02 2.8282899278368166e-02 0.0000000000000000e+00  -1.5308992619036689e-02 -1.3867196394204215e-01 0.0000000000000000e+00  -1.1750771018742863e-01 -7.3190243917183343e-03 0.0000000000000000e+00  -8.4935102316699956e-02 -2.0556851866310854e-02 0.0000000000000000e+00  2.9097476296140630e-02 1.8776960534580927e-02 0.0000000000000000e+00  -3.5368496560753281e-03 5.7690312532409034e-02 0.0000000000000000e+00  1.3753579023474560e-01 -7.1196717876152770e-03 0.0000000000000000e+00  7.4846079836031906e-02 -3.0373972219156158e-02 0.0000000000000000e+00  9.3684686412567178e-02 -4.4022264617180416e-02 0.0000000000000000e+00  -1.3727706088088476e-01 -3.6201912133567368e-02 0.0000000000000000e+00  -9.2716438921571484e-02 2.8347308643171924e-02 0.0000000000000000e+00  4.8035243980175849e-02 -9.2681549029401233e-02 0.0000000000000000e+00  -6.1907165204943534e-02 -8.2294166985089331e-02 0.0000000000000000e+00  -9.2108834501902347e-04 -5.7670406096749054e-02 0.0000000000000000e+00  -3.2112596832182476e-02 -8.8030429133247073e-02 0.0000000000000000e+00  9.3998381211873469e-02 -1.0775920321715876e-01 0.0000000000000000e+00  9.2728762633250902e-02 2.5563981703559138e-02 0.0000000000000000e+00  9.2148174638827990e-02 -6.8513997218598729e-02 0.0000000000000000e+00  -1.3216902411855591e-01 -5.3515997104390756e-02 0.0000000000000000e+00  -1.3508118191560416e-02 8.7201974308489805e-02 0.0000000000000000e+00  -1.4223411339862604e-01 2.1923718315486646e-02 0.0000000000000000e+00  -9.6655301461763565e-04 -5.4131369796162274e-02 0.0000000000000000e+00  1.3652975162650752e-01 -4.3077998333541166e-02 0.0000000000000000e+00  1.0909790977667894e-01 2.3549477081144497e-02 0.0000000000000000e+00  8.5631331899815658e-02 -5.3761522469747240e-02 0.0000000000000000e+00  2.6298552319184241e-02 -2.1155566775877620e-02 0.0000000000000000e+00  1.1513887780447896e-01 8.3541105371405744e-02 0.0000000000000000e+00  3.0640198387132271e-02 1.1039168321280381e-01 0.0000000000000000e+00  4.9013930632103558e-03 -7.0529985257845540e-02 0.0000000000000000e+00  -8.8224996311987366e-02 -6.8519147783712514e-02 0.0000000000000000e+00  -1.0702425835698105e-01 -9.0632876846553315e-02 0.0000000000000000e+00  -1.4757828825681843e-02 -5.6770451764769435e-02 0.0000000000000000e+00  -5.5124038188446951e-03 -1.7139549413616905e-02 0.0000000000000000e+00  -3.4753504290829414e-03 -6.2061915093503901e-02 0.0000000000000000e+00  -1.4234437844114695e-01 -1.7412232946133078e-02 0.0000000000000000e+00  -1.0836895849590854e-01 9.3474834517488961e-02 0.0000000000000000e+00  -1.2611626240434806e-01 6.8653250969363810e-02 0.0000000000000000e+00  7.9262209237489056e-02 9.8861554302856453e-02 0.0000000000000000e+00  -9.7530162347769636e-02 8.1232450055995165e-02 0.0000000000000000e+00  9.0857528847701711e-03 5.9790174366941458e-02 0.0