<?xml version="1.0"?>
<VTKFile type="UnstructuredGrid"  version="0.1"  >
<UnstructuredGrid>
<Piece  NumberOfPoints="1312" NumberOfCells="2508">
<Points>
<DataArray  type="Float64"  NumberOfComponents="3"  format="ascii">-1.000139224660345 0.2294888788361787 0  -0.9917307973282665 0.115463172774984 0  -0.9703153020685168 0.004477587527374744 0  -0.9361723078599343 -0.1038405359176122 0  -0.8898033831757675 -0.2075691606291593 0  -0.8306081871929679 -0.3070465979961085 0  -0.7611771641378644 -0.3978147339605326 0  -0.6829131587525447 -0.4790308429987442 0  -0.5992021110051963 -0.548552719717284 0  -0.5152726679953872 -0.6045999479359884 0  -0.4305338074912095 -0.6499322182660197 0  -0.3431370282354772 -0.6864662462580966 0  -0.2547083168103995 -0.7143547657437678 0  -0.1647756754785412 -0.7338386779117195 0  -0.07773797676249433 -0.7444760840485151 0  0.002409006209621365 -0.7474635778180294 0  0.0824340939018456 -0.743557590903394 0  0.1688335080037569 -0.7319479791636334 0  0.2578767895508883 -0.7118204685389904 0  0.3474939795898637 -0.6823799376242042 0  0.4331724527360917 -0.6450960693294217 0  0.5169441127728793 -0.5990607272158723 0  0.599282471046568 -0.5428173065514723 0  0.6798445652856679 -0.4748325556681252 0  0.7563842270910086 -0.3948975353708445 0  0.8257349964055436 -0.3040281660647905 0  0.8841300167355671 -0.2053951697898897 0  0.9307519805214304 -0.1004777803686786 0  0.9647819205480136 0.008334249067549111 0  0.985979349734543 0.1199863814046997 0  0.9940912670882454 0.232797595025216 0  0.9889582417515526 0.3455029400312574 0  0.9706839965836846 0.4571352038690253 0  0.9399951114714562 0.5645121070102295 0  0.8972877930432014 0.6677945631224753 0  0.8426164347204239 0.7662405486085961 0  0.7776406762970821 0.8569444124829944 0  0.702489791531286 0.940243070898455 0  0.6188831103285692 1.014178797763213 0  0.5271826134245012 1.078421794551311 0  0.4288866678020087 1.13188947823129 0  0.3255646496107274 1.173865757172464 0  0.2174321089008423 1.204281884442933 0  0.1065785203503555 1.222467470163103 0  -0.005419811728411245 1.228479439901573 0  -0.1165194397431696 1.222150071657238 0  -0.227312346805245 1.203212617792545 0  -0.3348362870148309 1.172204577588949 0  -0.438062530584615 1.129563520896593 0  -0.5365375209264964 1.075350593642145 0  -0.6274636829123913 1.010993924701096 0  -0.7106569516337904 0.9370408559424311 0  -0.785556162942153 0.8535456762864831 0  -0.8507093482758904 0.7615209651714097 0  -0.9043204841575992 0.6641460125812423 0  -0.9467648307062773 0.5606923868352401 0  -0.9771345135095985 0.4531741530930049 0  -0.9951584380344073 0.342145766506632 0  2.604413270327315 -0.0005067376882717017 0  2.596344894156513 0.2048443591003695 0  2.572429355764273 0.4069136164146523 0  2.532412075046327 0.6079692868350655 0  2.476903119689575 0.8048012560963199 0  2.406004001979274 0.9970641596620421 0  2.320590624180785 1.182338310791655 0  2.220644949118902 1.360817594983052 0  2.107033329010085 1.530846876761187 0  1.980433718627962 1.691440691457547 0  1.841576315894346 1.841648290272456 0  1.691766718103227 1.980135037363278 0  1.530495072236825 2.10727030877491 0  1.360865656381218 2.22061669549422 0  1.182336088273796 2.320595851419756 0  0.9970769988193164 2.406003450435383 0  0.8048125983860418 2.476920048617228 0  0.6079717517576821 2.532418235645776 0  0.4069126365440918 2.57243504231014 0  0.2048478672232609 2.596351101773938 0  -0.0005086411449656231 2.604419425793844 0  -0.2038292211949936 2.59643141440596 0  -0.4074193110707763 2.572326341032005 0  -0.6084864124119296 2.532339398176614 0  -0.8043263630552363 2.477106717462177 0  -0.9966563046948174 2.406130816913806 0  -1.182836180025703 2.320322408407569 0  -1.360370692168937 2.220898002803485 0  -1.530815577877016 2.106985241761508 0  -1.691821265789708 1.98008476163619 0  -1.841244699292509 1.841957046175759 0  -1.980695393021722 1.691108188993036 0  -2.106998510233299 1.530896232951227 0  -2.220678842020032 1.360756817099868 0  -2.320353773970373 1.182773108143135 0  -2.406123350152524 0.9966570629170425 0  -2.476907336636664 0.8047868041775257 0  -2.532558827702944 0.6075702025081247 0  -2.572363513002777 0.4074201396338938 0  -2.596355589781195 0.2047628660038941 0  -2.604415799986188 -0.0004351303377364816 0  -2.596406404858068 -0.2042891261329542 0  -2.572367969660137 -0.4074301556555769 0  -2.532471177341602 -0.6079922995154908 0  -2.476962928853131 -0.8048145013702882 0  -2.406181950677639 -0.9966727945690201 0  -2.320568907634738 -1.182388085164209 0  -2.220643833960964 -1.360814223429715 0  -2.107035310617294 -1.530843680675614 0  -1.98039071856033 -1.69148316526312 0  -1.841910013672679 -1.841295751613735 0  -1.691050918550145 -1.980738205064922 0  -1.531247773814869 -2.10671912538208 0  -1.360783815494057 -2.220595233631335 0  -1.181924421815501 -2.320784478760705 0  -0.9971374738974941 -2.405972704866962 0  -0.8043246084436136 -2.477106571644445 0  -0.608484020090421 -2.532330513455978 0  -0.4074191083309765 -2.572309946845972 0  -0.2043268267655639 -2.596361624825622 0  0.0004393284280385221 -2.604419109616834 0  0.2042868334066911 -2.59640954458753 0  0.407422663814828 -2.572373845590477 0  0.6080463657204381 -2.532458815203521 0  0.8043986744815397 -2.477084804965503 0  0.9970607330760556 -2.406009201407646 0  1.182386546826402 -2.320565633312433 0  1.360445170071897 -2.220854962292848 0  1.53118796491099 -2.106771402384904 0  1.691399836351268 -1.980464781895107 0  1.841655165864547 -1.841569169948217 0  1.980129439032495 -1.691770301764529 0  2.106980457204057 -1.530812192977433 0  2.220860678412913 -1.360429945518927 0  2.320537577065421 -1.182440967831425 0  2.406204518825754 -0.9966189251880939 0  2.476812550187065 -0.8052242472609332 0  2.532408033057834 -0.6079849127221785 0  2.572306899208516 -0.4074051371415037 0  2.59642464928266 -0.203829122741604 0  -0.004162272444712171 0.2504011573534008 0  -0.1014423932643509 -1.672118346296938 0  0.8172474272884027 -1.487469250853786 0  -1.046583147869465 -1.34993447228248 0  1.459966445765554 -0.9275767310350557 0  -1.639894758819492 -0.6220995215277999 0  1.767267105344255 -0.1907918631102173 0  -1.798281030785919 0.1861802283428603 0  1.735694571241546 0.5813293984843787 0  -1.605214407849283 0.9310654284000596 0  1.416321300682739 1.227464456605527 0  -1.130144191610467 1.517912655348668 0  0.8042035107206976 1.728491158358029 0  -0.4679733191624266 1.85447950563274 0  0.1754423129596554 1.860963589606548 0  -0.6978936078405746 -1.854284427456458 0  0.3916165380779531 -1.985772375047057 0  1.389433043957449 -1.509210582244464 0  -1.621655454804715 -1.197732400069297 0  0.501381175418847 0.281081893839097 0  -0.5087698792316097 0.2228181916039585 0  -0.4923263575065351 -1.330467917668481 0  0.2528579112725879 -0.155549047944232 0  -0.21236310362656 -0.182838844926646 0  -0.2654948818367578 0.6684436475117983 0  1.956392800441275 -0.7285788704411283 0  0.2804525665598288 -1.288904889961981 0  -2.067989256712813 -0.2562006083823777 0  -1.11908914283558 -0.8258735045469401 0  2.086884585828833 0.2211082176282564 0  0.916979067827987 -0.9861598517051398 0  -0.2513410088622738 -2.132957965348902 0  0.8582064669978909 -1.960197852204634 0  -1.160500667759943 -1.8049096114946 0  1.854573089585723 1.053729421411748 0  -2.07657834147003 0.5710713492895311 0  1.318066626967195 -0.4570119072808058 0  -1.593743335010786 1.417828339488082 0  -1.435990386904108 -0.1807606399412193 0  0.2324502815407891 0.6975990615507492 0  1.757241400889698 -1.265873659775681 0  -1.966732443805598 -0.9270791849092457 0  1.281961982403722 1.697259982595365 0  -0.9239756747276625 1.941695242618556 0  1.467427158886498 0.1674433727163936 0  -0.0963007136392484 -1.236461246840156 0  -0.7225721662427202 -1.000787587569838 0  -0.08664055069104939 2.196707138192016 0  -1.445280403789951 0.4791215854136167 0  2.157514066092003 -0.3650391066738258 0  0.5507715882798356 2.098124143972076 0  1.338035706229756 0.774346878106448 0  -1.166465720671901 1.069914613618767 0  0.9741607929189068 1.301731068065628 0  -2.203634644966041 0.121803796617235 0  -0.6885445041820213 1.477251093468101 0  -1.409336374186283 -1.514483699192387 0  2.096833836168402 0.756582040352502 0  -2.000279632086722 0.9560214549446909 0  -1.268663137759672 -0.5037928940771124 0  1.660039254935786 1.519068263409329 0  0.5300270179437316 -1.045694777705503 0  0.4416574381958721 1.554963153255087 0  -1.421852731392997 1.743357524376542 0  -0.144102059430244 1.616754771460307 0  1.232021810580991 -1.860171155188907 0  -0.6454298372017279 2.166055317907066 0  1.060617821954423 1.985274005190061 0  -1.998050226681574 -0.5889613062270573 0  1.22543196619964 -1.188224504749168 0  -0.616608760418858 -2.191649864710955 0  0.2395755073044991 -1.646894299444616 0  1.007702286508152 -0.65559327075862 0  -1.449629653484975 0.1461940125337041 0  -0.9615601072818138 -2.072515006567082 0  0.05515159060427302 -1.98526587977975 0  0.6019459913698951 -1.731162116915542 0  0.5799424793581309 -0.06420503920658208 0  1.67752288085968 -0.514921165091516 0  -0.5458877483552826 -0.1274584677518648 0  0.02426098616479789 -0.3873126117383998 0  -1.305052053276683 0.7716358923342366 0  1.422953722306677 -0.1532447846360104 0  -0.5930207901705901 0.5490596105834298 0  1.15063215988452 1.031643158375428 0  -0.3116945522464557 -1.048959389099136 0  0.2491778368643246 2.262381302732367 0  0.6422852038452299 -2.199695220706096 0  0.2270013592007739 -2.272097208198959 0  -0.02972436099457659 0.9057784858865271 0  1.304819189099129 0.441535836701685 0  0.5562521874771394 0.6336307964239173 0  -0.9265765946145246 1.270168907030207 0  -0.8970713805447519 -1.618212540424374 0  -0.3792829136286121 -1.834878932352158 0  -1.764840924938774 0.4922538371874776 0  -1.798478676373625 1.187104925790806 0  -1.93824178816736 -1.234893262080103 0  1.698973874710727 -1.569125585960083 0  -1.731319046830456 -1.498525784040842 0  -1.736756628072666 -0.3215347118422473 0  -1.2
[...]
<PointData  Vectors="f_4233-0"> 
<DataArray  type="Float64"  Name="f_4233-0"  NumberOfComponents="3" format="ascii">1.0772100828531051e-02 -7.8075228299026481e-02 0.0000000000000000e+00  2.7779266460572483e-02 -8.9786363087199034e-02 0.0000000000000000e+00  4.6726482832239340e-02 -9.7524160781236796e-02 0.0000000000000000e+00  6.8081511124400834e-02 -1.0396888935688002e-01 0.0000000000000000e+00  9.1221730611146329e-02 -1.0733977165640961e-01 0.0000000000000000e+00  1.1790840143736551e-01 -1.0948985532916106e-01 0.0000000000000000e+00  1.4329019366777271e-01 -1.0457887141639810e-01 0.0000000000000000e+00  1.6438741215083449e-01 -9.2464757741506504e-02 0.0000000000000000e+00  1.7519701157057280e-01 -7.1762302393756180e-02 0.0000000000000000e+00  1.7002024334052107e-01 -4.4035905283539713e-02 0.0000000000000000e+00  1.5645961325879759e-01 -1.7233980193638140e-02 0.0000000000000000e+00  1.3766901636038220e-01 5.8131853265056812e-03 0.0000000000000000e+00  1.1501348541417598e-01 2.4637772541758599e-02 0.0000000000000000e+00  8.7838204876362888e-02 3.9792475194555553e-02 0.0000000000000000e+00  5.2467157494217362e-02 5.0091342566191216e-02 0.0000000000000000e+00  4.3787703074943795e-03 5.3881720017634818e-02 0.0000000000000000e+00  -4.3598623330608856e-02 5.0147441613497587e-02 0.0000000000000000e+00  -8.0219449363319845e-02 4.0355296747552255e-02 0.0000000000000000e+00  -1.0774198422628983e-01 2.5512060586141031e-02 0.0000000000000000e+00  -1.3027607557543958e-01 6.4714978365623269e-03 0.0000000000000000e+00  -1.4835185281506386e-01 -1.5335650710524446e-02 0.0000000000000000e+00  -1.6281867199811423e-01 -4.1011887721359455e-02 0.0000000000000000e+00  -1.6958211479389576e-01 -6.7834299442339971e-02 0.0000000000000000e+00  -1.6557824378192335e-01 -9.2057093731612666e-02 0.0000000000000000e+00  -1.4848714273698274e-01 -1.0743743421984049e-01 0.0000000000000000e+00  -1.2284618463191679e-01 -1.1329740548168848e-01 0.0000000000000000e+00  -9.6888147766492905e-02 -1.1388086443171662e-01 0.0000000000000000e+00  -7.2281896073550220e-02 -1.0937773056634092e-01 0.0000000000000000e+00  -5.0029649809643056e-02 -1.0218284562090350e-01 0.0000000000000000e+00  -3.0284258397885754e-02 -9.3484691818397886e-02 0.0000000000000000e+00  -1.3250870491305859e-02 -8.3441949019083445e-02 0.0000000000000000e+00  1.4253591952514990e-03 -7.2260039011638785e-02 0.0000000000000000e+00  1.3308748664881478e-02 -5.9144148351256948e-02 0.0000000000000000e+00  2.3028516466861635e-02 -4.8118935003694949e-02 0.0000000000000000e+00  3.0403506616304740e-02 -3.6176492661378366e-02 0.0000000000000000e+00  3.4795349926858982e-02 -2.2704561233357200e-02 0.0000000000000000e+00  3.7848857452357873e-02 -1.1309640953017421e-02 0.0000000000000000e+00  3.8062662140100144e-02 6.6526254705657367e-04 0.0000000000000000e+00  3.6989334938821644e-02 1.1023844955157024e-02 0.0000000000000000e+00  3.3737170866000574e-02 2.0683569719407512e-02 0.0000000000000000e+00  2.8974162873354557e-02 2.8911918907713045e-02 0.0000000000000000e+00  2.3631892995902050e-02 3.5316052264234073e-02 0.0000000000000000e+00  1.5972761292043239e-02 4.0439874220962818e-02 0.0000000000000000e+00  7.5888391987168208e-03 4.3587178299473707e-02 0.0000000000000000e+00  -9.1606208513346824e-04 4.4693727959902091e-02 0.0000000000000000e+00  -7.7926568340767740e-03 4.3911138127500457e-02 0.0000000000000000e+00  -1.6362829685932410e-02 4.1004342694868537e-02 0.0000000000000000e+00  -2.3382099126894935e-02 3.6341547673647279e-02 0.0000000000000000e+00  -2.9205783812637710e-02 3.0129734192946914e-02 0.0000000000000000e+00  -3.4947238598394090e-02 2.1640078612181465e-02 0.0000000000000000e+00  -3.7567681041063151e-02 1.2750554084988952e-02 0.0000000000000000e+00  -3.8425582644191471e-02 3.0379829734800061e-03 0.0000000000000000e+00  -3.8296691737912204e-02 -8.4547135806864616e-03 0.0000000000000000e+00  -3.6680627628684161e-02 -2.1732781364225472e-02 0.0000000000000000e+00  -3.1271823989069650e-02 -3.2581862405214983e-02 0.0000000000000000e+00  -2.4196254505739555e-02 -4.4508285917315628e-02 0.0000000000000000e+00  -1.4876027710043625e-02 -5.5842009158855024e-02 0.0000000000000000e+00  -3.2966718621566114e-03 -6.7484093899498526e-02 0.0000000000000000e+00  1.4410437450353894e-01 -1.1902734090446794e-03 0.0000000000000000e+00  1.4356654988937237e-01 1.2491221075655175e-02 0.0000000000000000e+00  1.4251969816511273e-01 2.1353809094679769e-02 0.0000000000000000e+00  1.4003642073648165e-01 3.3593717518033264e-02 0.0000000000000000e+00  1.3696151567984838e-01 4.4523510341098964e-02 0.0000000000000000e+00  1.3275773968624555e-01 5.6085449353292439e-02 0.0000000000000000e+00  1.2849146434065675e-01 6.5327088816141757e-02 0.0000000000000000e+00  1.2290855447828609e-01 7.5327681221512094e-02 0.0000000000000000e+00  1.1662426612268766e-01 8.4727120186257568e-02 0.0000000000000000e+00  1.0962665591114890e-01 9.3609954667307149e-02 0.0000000000000000e+00  1.0184467247516522e-01 1.0201063344510558e-01 0.0000000000000000e+00  9.4377590711863038e-02 1.0892679348323178e-01 0.0000000000000000e+00  8.3900763030127959e-02 1.1718395407209958e-01 0.0000000000000000e+00  7.5437984117662407e-02 1.2284250835298863e-01 0.0000000000000000e+00  6.5322996242898029e-02 1.2850234807617983e-01 0.0000000000000000e+00  5.6113543203451376e-02 1.3275609370236571e-01 0.0000000000000000e+00  4.4543610438327691e-02 1.3699927255418359e-01 0.0000000000000000e+00  3.3605194991393784e-02 1.4004802262159557e-01 0.0000000000000000e+00  2.1350069811401706e-02 1.4253193026461641e-01 0.0000000000000000e+00  1.2499631204524851e-02 1.4357952186682743e-01 0.0000000000000000e+00  -1.1949006321776501e-03 1.4411723767643381e-01 0.0000000000000000e+00  -1.0106283675819071e-02 1.4376828900644531e-01 0.0000000000000000e+00  -2.2545977226177193e-02 1.4228198959449884e-01 0.0000000000000000e+00  -3.4808501295311711e-02 1.3985455112337022e-01 0.0000000000000000e+00  -4.3398799537806787e-02 1.3743177409527341e-01 0.0000000000000000e+00  -5.5124123100018012e-02 1.3306445144729603e-01 0.0000000000000000e+00  -6.6497120324151018e-02 1.2786311384247021e-01 0.0000000000000000e+00  -7.4278917411910672e-02 1.2350440656778255e-01 0.0000000000000000e+00  -8.4660015801532346e-02 1.1651924145490586e-01 0.0000000000000000e+00  -9.4504289750907383e-02 1.0880930274205727e-01 0.0000000000000000e+00  -1.0106616417063605e-01 1.0273887901356518e-01 0.0000000000000000e+00  -1.1024548681880482e-01 9.2828200582546913e-02 0.0000000000000000e+00  -1.1654424284116280e-01 8.4839364455574121e-02 0.0000000000000000e+00  -1.2298526185266827e-01 7.5189341418707589e-02 0.0000000000000000e+00  -1.2793749168879487e-01 6.6350262029166177e-02 0.0000000000000000e+00  -1.3304693078233945e-01 5.5129527607268573e-02 0.0000000000000000e+00  -1.3697321000246090e-01 4.4482986734163808e-02 0.0000000000000000e+00  -1.4037224016429509e-01 3.2654141389816510e-02 0.0000000000000000e+00  -1.4236224833783220e-01 2.2543008889289565e-02 0.0000000000000000e+00  -1.4359158005789227e-01 1.2304149199936996e-02 0.0000000000000000e+00  -1.4411088906626957e-01 -1.0232907093630150e-03 0.0000000000000000e+00  -1.4370839683947986e-01 -1.1188513110795321e-02 0.0000000000000000e+00  -1.4237359072281372e-01 -2.2564968286589993e-02 0.0000000000000000e+00  -1.4016309818283945e-01 -3.3649939559925422e-02 0.0000000000000000e+00  -1.3709330924614788e-01 -4.4545096693567245e-02 0.0000000000000000e+00  -1.3317519285535234e-01 -5.5161544622202720e-02 0.0000000000000000e+00  -1.2844196925168319e-01 -6.5442385384311727e-02 0.0000000000000000e+00  -1.2290598830719764e-01 -7.5321119102802744e-02 0.0000000000000000e+00  -1.1662844025567266e-01 -8.4720983466338218e-02 0.0000000000000000e+00  -1.0952873637256465e-01 -9.3706796287221589e-02 0.0000000000000000e+00  -1.0263088036719697e-01 -1.0118460658373055e-01 0.0000000000000000e+00  -9.2694648086496412e-02 -1.1034526389766972e-01 0.0000000000000000e+00  -8.5671448327142366e-02 -1.1588716394561213e-01 0.0000000000000000e+00  -7.5253519108325048e-02 -1.2280115539439854e-01 0.0000000000000000e+00  -6.4354365035410657e-02 -1.2894960631244748e-01 0.0000000000000000e+00  -5.6253324130767557e-02 -1.3268459647436787e-01 0.0000000000000000e+00  -4.3392926558333607e-02 -1.3743195875287595e-01 0.0000000000000000e+00  -3.4805560567391050e-02 -1.3983474132572929e-01 0.0000000000000000e+00  -2.2543067698118757e-02 -1.4224700936323567e-01 0.0000000000000000e+00  -1.1273585692861595e-02 -1.4361140049121007e-01 0.0000000000000000e+00  1.0341018523053489e-03 -1.4411746344632892e-01 0.0000000000000000e+00  1.1182752092079458e-02 -1.4371458675039472e-01 0.0000000000000000e+00  2.2549063494487525e-02 -1.4238576886757504e-01 0.0000000000000000e+00  3.3774327156011141e-02 -1.4013322095597569e-01 0.0000000000000000e+00  4.3566628681161311e-02 -1.3738166765047791e-01 0.0000000000000000e+00  5.6077466515184596e-02 -1.3276893391820996e-01 0.0000000000000000e+00  6.5438114722924254e-02 -1.2843324905744827e-01 0.0000000000000000e+00  7.4453859898381686e-02 -1.2340410882678762e-01 0.0000000000000000e+00  8.5528822477605931e-02 -1.1601127083537972e-01 0.0000000000000000e+00  9.3516764262932511e-02 -1.0969743599315324e-01 0.0000000000000000e+00  1.0202561905275409e-01 -1.0182954448769137e-01 0.0000000000000000e+00  1.0891359234859725e-01 -9.4387458556486573e-02 0.0000000000000000e+00  1.1651136635138061e-01 -8.4650239736709904e-02 0.0000000000000000e+00  1.2341858261616390e-01 -7.4418229767313507e-02 0.0000000000000000e+00  1.2837004918204745e-01 -6.5563234942124085e-02 0.0000000000000000e+00  1.3322596107537241e-01 -5.5038715181519857e-02 0.0000000000000000e+00  1.3674227479602047e-01 -4.5509851086067525e-02 0.0000000000000000e+00  1.4002482269293179e-01 -3.3640867799912828e-02 0.0000000000000000e+00  1.4224245343990916e-01 -2.2504296767809826e-02 0.0000000000000000e+00  1.4375407659971387e-01 -1.0106182632234990e-02 0.0000000000000000e+00  -3.4159079728138227e-03 6.8837770128217748e-02 0.0000000000000000e+00  2.4648183478507501e-03 -4.5259342584464200e-02 0.0000000000000000e+00  3.6774156013239722e-03 -7.0270346100278255e-02 0.0000000000000000e+00  -1.5694676493694340e-02 -7.0013688524786497e-02 0.0000000000000000e+00  3.7105305078372314e-02 -5.7335731316434352e-02 0.0000000000000000e+00  -4.3307732279388556e-02 -5.2624098517679310e-02 0.0000000000000000e+00  5.6135553386962848e-02 -4.4752135013650544e-02 0.0000000000000000e+00  -7.1418159185519928e-02 -3.7155114256972259e-02 0.0000000000000000e+00  8.2643764982330337e-02 -1.9562136026861958e-02 0.0000000000000000e+00  -9.1019726126321671e-02 1.4693445664610294e-03 0.0000000000000000e+00  9.0487932972732735e-02 2.4129173504285336e-02 0.0000000000000000e+00  -8.0954158343570407e-02 5.2721493100595464e-02 0.0000000000000000e+00  6.3091384866822031e-02 7.4193096468604738e-02 0.0000000000000000e+00  -3.6839766839005812e-02 9.0394569846205822e-02 0.0000000000000000e+00  1.5483812037149082e-02 9.2096105590562749e-02 0.0000000000000000e+00  -2.3946167850930025e-02 -9.5297288471953734e-02 0.0000000000000000e+00  1.2009208494806189e-02 -1.0091482326710320e-01 0.0000000000000000e+00  6.7098020764477267e-02 -8.6623173985139676e-02 0.0000000000000000e+00  -7.5380374236006936e-02 -7.0305497908011605e-02 0.0000000000000000e+00  1.0392352210893395e-02 2.1318753874887908e-02 0.0000000000000000e+00  -9.5540880630929654e-03 1.7782843472316696e-02 0.0000000000000000e+00  3.9149608125014182e-02 -3.8284029847784923e-02 0.0000000000000000e+00  -5.5890697844182755e-02 8.0574532841089286e-02 0.0000000000000000e+00  5.0504221880259367e-02 8.4064587945109542e-02 0.0000000000000000e+00  -1.8288339621676052e-02 5.1800133420548927e-02 0.0000000000000000e+00  9.7605915208793012e-02 -5.0331098469520504e-02 0.0000000000000000e+00  -4.1812251859769889e-02 -8.6078623025880908e-03 0.0000000000000000e+00  -1.0365387634430979e-01 -3.6402458451197911e-02 0.0000000000000000e+00  3.0784222607959846e-02 -5.7689494318978227e-02 0.0000000000000000e+00  1.1147512527739269e-01 -1.5663379036568312e-02 0.0000000000000000e+00  -3.6694391948257563e-02 -6.4467533631084040e-02 0.0000000000000000e+00  -1.1362840819540088e-02 -1.1586064804379670e-01 0.0000000000000000e+00  3.9657307193446477e-02 -1.1117847568502159e-01 0.0000000000000000e+00  -5.8624630569414957e-02 -1.0357272628639437e-01 0.0000000000000000e+00  1.1556843479835739e-01 2.9661022302650084e-02 0.0000000000000000e+00  -1.2034449809132783e-01 2.8919243893754192e-03 0.0000000000000000e+00  -2.7122668939050156e-02 -6.1086587779466663e-02 0.0000000000000000e+00  -1.0730902939411319e-01 5.5101893909516510e-02 0.0000000000000000e+00  5.4967222578433282e-03 -6.3975598039490128e-02 0.0000000000000000e+00  1.3522521255985213e-02 5.4101810787563466e-02 0.0000000000000000e+00  9.4811134928184021e-02 -7.4367580032577610e-02 0.0000000000000000e+00  -1.0425002098007233e-01 -5.9382465847835506e-02 0.0000000000000000e+00  9.1936807596079070e-02 7.7032934247352247e-02 0.0000000000000000e+00  -6.8598841067731259e-02 1.0117238294981845e-01 0.0000000000000000e+00  1.7611363261339691e-02 -6.0028214626019302e-02 0.0000000000000000e+00  2.4121542489803291e-02 1.6735790428293082e-02 0.0000000000000000e+00  6.6312298445893703e-02 -6.1491653757170736e-02 0.0000000000000000e+00  -5.8886227558159537e-03 1.2595110336503113e-01 0.0000000000000000e+00  -4.2494428616193743e-02 -4.6524496564970652e-02 0.0000000000000000e+00  1.1598533025633367e-01 -3.4742583401076492e-02 0.0000000000000000e+00  4.3333488599582769e-02 1.1602537900219623e-01 0.0000000000000000e+00  5.5910198261277466e-02 -2.9753934898227877e-02 0.0000000000000000e+00  -6.6205463421756580e-02 -1.4284440977913636e-03 0.0000000000000000e+00  6.5135224938319081e-02 2.2311798434567123e-02 0.0000000000000000e+00  -1.2335564310725505e-01 -1.5380671871229202e-02 0.0000000000000000e+00  -5.1515149126070602e-02 4.6746302848844921e-02 0.0000000000000000e+00  -6.8724886078970315e-02 -8.6672448934983326e-02 0.0000000000000000e+00  1.2594413706484606e-01 1.9250982810424398e-02 0.0000000000000000e+00  -1.2380860948362922e-01 2.9174331603017231e-02 0.0000000000000000e+00  3.5367883656158103e-02 -6.2186925928448322e-02 0.0000000000000000e+00  1.1081706485909923e-01 6.9014973910672212e-02 0.0000000000000000e+00  -7.7485889174523981e-02 -5.2382578864729780e-02 0.0000000000000000e+00  3.6355099549038865e-02 5.6874708602906769e-02 0.0000000000000000e+00  -9.8249995928340772e-02 8.6425758478359191e-02 0.0000000000000000e+00  -1.0879971853660551e-02 6.5773357762109366e-02 0.0000000000000000e+00  6.6243732507290154e-02 -1.0922037937268476e-01 0.0000000000000000e+00  -4.6846334786686948e-02 1.2268245856212052e-01 0.0000000000000000e+00  7.6824854555016919e-02 1.0576033692255443e-01 0.0000000000000000e+00  -9.8343709467280632e-02 -4.7550156090030139e-02 0.0000000000000000e+00  2.6234310250783051e-02 -6.6991290127145497e-02 0.0000000000000000e+00  -3.2155886531987726e-02 -1.2632485847138392e-01 0.0000000000000000e+00  -7.2168184747944874e-03 -4.6372730276683448e-02 0.0000000000000000e+00  -7.3488610073505559e-02 -6.5708309382242563e-02 0.0000000000000000e+00  -1.5928964465147716e-02 -6.2377117593635303e-02 0.0000000000000000e+00  -5.2003596461271860e-02 -1.2084344795717321e-01 0.0000000000000000e+00  5.8895606064816581e-04 -9.4775317991304342e-02 0.0000000000000000e+00  8.2850748367911415e-03 -7.8697612749300969e-02 0.0000000000000000e+00  -3.4895608336459570e-02 -1.3274632822894272e-02 0.0000000000000000e+00  4.6099588007213914e-02 -4.9352759015312359e-02 0.0000000000000000e+00  4.3541872324648567e-02 -6.4766993877897333e-03 0.0000000000000000e+00  -1.9398996523534599e-02 9.8381092027285261e-02 0.0000000000000000e+00  -5.3979037063470348e-02 -2.9767131690750855e-02 0.0000000000000000e+00  -7.4981534483557601e-03 -6.4638836981666198e-02 0.0000000000000000e+00  -2.9022874392893531e-02 1.0515418306538432e-02 0.0000000000000000e+00  6.2145198961289762e-02 -8.0960969402842260e-03 0.0000000000000000e+00  8.3388090420817629e-02 -2.2763554846207793e-02 0.0000000000000000e+00  1.9242237322893169e-02 1.3108777250503389e-01 0.0000000000000000e+00  3.2700697913299388e-02 -1.2758024922065442e-01 0.0000000000000000e+00  1.0634192287809943e-02 -1.2995162491335838e-01 0.0000000000000000e+00  -2.6208361298306420e-03 5.5378100828881477e-02 0.0000000000000000e+00  2.3218736582032898e-02 -5.9689397125291227e-02 0.0000000000000000e+00  2.8110807886364119e-02 1.6144897382662091e-02 0.0000000000000000e+00  -6.0953847019946841e-02 2.0254384094241649e-02 0.0000000000000000e+00  -2.3081677922997812e-02 -8.1373706353148084e-02 0.0000000000000000e+00  -6.4387719906499209e-03 -8.0209423255846735e-02 0.0000000000000000e+00  -8.2253369865850440e-02 -2.4170705732468510e-02 0.0000000000000000e+00  -1.1552441734985827e-01 3.9703914505219505e-02 0.0000000000000000e+00  -1.0971992169525313e-01 -7.3632667241662314e-02 0.0000000000000000e+00  9.7544158743843340e-02 -9.1939622870020277e-02 0.0000000000000000e+00  -9.8270039617060503e-02 -8.7995868500101687e-02 0.0000000000000000e+00  -5.1008995656379681e-02 -4.9138624984124329e-02 0.0000000000000000e+00  -2.5856980132776375e-02 -6.3580438121434699e-02 0.0000000000000000e+00  -2.7144192653269644e-02 -5.6453492335554627e-02 0.0000000000000000e+00  1.2855266310399047e-01 -1.7959181565435457e-02 0.0000000000000000e+00  6.4879037857293487e-02 -3.8814021495120400e-02 0.0000000000000000e+00  4.7436865950356545e-02 3.0302423814985324e-02 0.0000000000000000e+00  -1.2897577155319323e-01 -3.6184689229630126e-02 0.0000000000000000e+00  1.1336551284455927e-01 -6.3565063199778005e-02 0.0000000000000000e+00  1.1245628901981154e-02 5.8507993080986843e-02 0.0000000000000000e+00  1.3449967598977150e-01 9.3114982327384584e-03 0.0000000000000000e+00  -1.3791190020153995e-02 9.7378394542084398e-02 0.0000000000000000e+00  -3.6038442536669227e-02 2.9700842179243837e-02 0.0000000000000000e+00  8.9381252060002414e-02 3.5574176116056123e-03 0.0000000000000000e+00  9.7493507213188627e-02 -7.3120947887009236e-02 0.0000000000000000e+00  3.0955171701497704e-02 -7.7767214786309297e-02 0.0000000000000000e+00  -3.6445097026345873e-02 -4.6021689816859619e-02 0.0000000000000000e+00  -8.2943291801536673e-02 -1.0595603980788491e-01 0.0000000000000000e+00  -3.2721919295871267e-02 5.9567016384605723e-02 0.0000000000000000e+00  -2.7378921010207443e-02 1.1978376519534588e-01 0.0000000000000000e+00  7.9064420458810486e-02 -5.7929213945922667e-02 0.0000000000000000e+00  1.2739377053957426e-01 -4.2790374276242805e-02 0.0000000000000000e+00  8.5732920011720615e-02 -1.0418700102792738e-01 0.0000000000000000e+00  5.9500702949388230e-02 1.2229165747602806e-01 0.0000000000000000e+00  1.7624574648946657e-02 -6.1638998717967963e-02 0.0000000000000000e+00  2.2005927190927609e-02 -2.2563298708501989e-02 0.0000000000000000e+00  2.3098677047360488e-03 -6.3988830054653251e-02 0.0000000000000000e+00  2.5550148189834521e-02 -5.8613991806872844e-02 0.0000000000000000e+00  4.4851145537284053e-02 8.5385756701040330e-02 0.0000000000000000e+00  3.7934951988263722e-02 -9.3826591547453972e-02 0.0000000000000000e+00  -8.8233096580550896e-02 3.2134850097892222e-02 0.0000000000000000e+00  -8.4040127849132187e-02 8.7246233475416282e-02 0.0000000000000000e+00  -5.4206412463304607e-03 -1.3588047289992658e-01 0.0000000000000000e+00  -1.0004787439774673e-01 -7.4189031600031846e-02 0.0000000000000000e+00  1.0917050296779736e-01 -6.7839351971528614e-03 0.0000000000000000e+00  -8.3843114787840317e-03 -3.6250691043301525e-03 0.0000000000000000e+00  1.2076072476245610e-01 6.1024792168514287e-02 0.0000000000000000e+00  -1.3467468837461896e-01 5.2915221771268313e-03 0.0000000000000000e+00  -9.7943817845429909e-03 8.4489800382501729e-02 0.0000000000000000e+00  -1.1864708126575511e-01 7.0152653569616474e-02 0.0000000000000000e+00  -1.1187707740955725e-02 -5.7982644426817061e-02 0.0000000000000000e+00  -2.5079903555740610e-02 -6.3114311318118024e-02 0.0000000000000000e+00  -1.4683420299247715e-03 -4.2728202370732757e-02 0.0