<?xml version="1.0"?>
<VTKFile type="UnstructuredGrid"  version="0.1"  >
<UnstructuredGrid>
<Piece  NumberOfPoints="1235" NumberOfCells="2353">
<Points>
<DataArray  type="Float64"  NumberOfComponents="3"  format="ascii">-1.006441607923548 0.2021906932827744 0  -0.9985098179128908 0.08940821264237686 0  -0.9772167685401604 -0.02242328390803859 0  -0.9427915361058479 -0.1315151579487446 0  -0.8961980600567346 -0.2351724446544327 0  -0.837540906533174 -0.3338672157256061 0  -0.7683068444331477 -0.424251172360024 0  -0.6896402561309829 -0.5061682153740604 0  -0.6062585520649878 -0.5757062502304725 0  -0.5223420663999419 -0.632096298953298 0  -0.4362665564046054 -0.678266160479121 0  -0.3475591185181591 -0.7155264408654936 0  -0.2574912715494871 -0.7438450543288014 0  -0.1668095232826757 -0.7633920985220395 0  -0.07836077750235132 -0.7741699179670811 0  0.006237253506531852 -0.7771307010197098 0  0.09024460528807422 -0.7727178737174571 0  0.1790683090882441 -0.7603100475299385 0  0.2698947835723112 -0.7390664951858688 0  0.3591515524754039 -0.7091980265475615 0  0.4460723735950843 -0.6708071111978725 0  0.5320553107422398 -0.6225616713691344 0  0.6150733309807734 -0.564638373729986 0  0.6955589795123154 -0.4952179424859552 0  0.7721510958047675 -0.4133989495119874 0  0.840438169149839 -0.321382584010933 0  0.897509972688701 -0.2225086707747609 0  0.9427361045868972 -0.1178280008472826 0  0.9754365820184914 -0.00919820370208211 0  0.9954147245970633 0.1033640022705325 0  1.002104287155296 0.2160999765467501 0  0.9956212880303885 0.3289392031439287 0  0.9759694937253617 0.4405771703404853 0  0.9439194020176693 0.5480525360042627 0  0.9001355020677531 0.6506919736695338 0  0.8443475463248422 0.7486425166289101 0  0.778549226546947 0.8388192209011142 0  0.7026581606463717 0.9211478164414582 0  0.6176240015294251 0.9946861946948874 0  0.5253458211863475 1.057842515058592 0  0.4260768031021852 1.110688494988213 0  0.3216826445771483 1.152082327743381 0  0.2133154038384688 1.181953114416544 0  0.1024442937264549 1.199612801081473 0  -0.009416436242817775 1.205008172106974 0  -0.1214521533851949 1.197867092596948 0  -0.2322262858683511 1.178487644828658 0  -0.3401416911605825 1.146952097704825 0  -0.4436982097298284 1.103740004542479 0  -0.5421035232799066 1.049357825579262 0  -0.6333545223442726 0.9847383424867948 0  -0.7167585595343233 0.9104324561387789 0  -0.791348531029219 0.8271997063748018 0  -0.8567240734995745 0.7351176075160833 0  -0.9105985919311423 0.6373523907186959 0  -0.9531821082540796 0.5333687496333785 0  -0.9836765732744217 0.425085919600713 0  -1.001356986559393 0.3142018614686637 0  2.527525777513762 0.0003760844943714693 0  2.519339729945579 0.2033800653269562 0  2.494857070920756 0.4050719252052428 0  2.454040416014129 0.6048662660445238 0  2.397306380596373 0.8008101295455082 0  2.325445360933204 0.9902933909156763 0  2.237839950932947 1.174932597241107 0  2.136279888027663 1.350843110066182 0  2.020622541080843 1.518406796729898 0  1.891900597768024 1.676065422764055 0  1.750858482300673 1.822901850988405 0  1.598813661943835 1.957600980460148 0  1.435437217648688 2.080364525450145 0  1.264152155743455 2.188679912676729 0  1.0835174251016 2.283459764196527 0  0.8958576527728094 2.363439375928615 0  0.7036262018871396 2.427614911883123 0  0.5052094863696946 2.476528460782224 0  0.3046620951940717 2.509113791182256 0  0.1021423867697929 2.525469317111689 0  -0.1021445166261552 2.52546723382361 0  -0.3046168039012539 2.509123278663005 0  -0.5055764442797407 2.47646817654575 0  -0.7032514834847154 2.427739408983188 0  -0.895921557100042 2.363417608678975 0  -1.08351356800051 2.283466222007684 0  -1.263748602623653 2.188870966326918 0  -1.435787836684377 2.080090865258353 0  -1.598506733080562 1.957816219038946 0  -1.750859472865057 1.822825585760211 0  -1.892133724859542 1.675780246134227 0  -2.020625236680129 1.51839869795314 0  -2.136043968202616 1.351192121604755 0  -2.23797778981231 1.174578320129017 0  -2.325447480963747 0.9902896469158603 0  -2.397307545422009 0.8008068899809715 0  -2.454183041723144 0.6044498917590855 0  -2.494722414131356 0.4058770179670345 0  -2.519362840931438 0.2029444095088853 0  -2.527523447411865 0.0004369098980637785 0  -2.519285012533907 -0.2038191144280572 0  -2.494865242040422 -0.4050119162481858 0  -2.453971371083696 -0.6053060091488928 0  -2.397585103310181 -0.799969538537513 0  -2.325097509568879 -0.9911077229280045 0  -2.238216138152348 -1.174208035535894 0  -2.1360001923157 -1.351250117422374 0  -2.02087897723634 -1.518034593708991 0  -1.891634037057364 -1.676340016655369 0  -1.750927447114287 -1.82283293785135 0  -1.59849153333759 -1.957879603513613 0  -1.436111582902241 -2.079900474377433 0  -1.263384279061476 -2.189120353421554 0  -1.0839307992825 -2.283306815621967 0  -0.8959298347271123 -2.363413713823504 0  -0.7032043190667089 -2.427748829197947 0  -0.5059384616332828 -2.476375722780547 0  -0.3046599477443183 -2.509075659842441 0  -0.1014032622677945 -2.52549607879328 0  0.1017744266548724 -2.525490302839617 0  0.3042920278781107 -2.509147070799045 0  0.5059348580570437 -2.476378697224139 0  0.7032050674499466 -2.427749200771326 0  0.8959292713749475 -2.363412645997576 0  1.083516673878278 -2.28345833594818 0  1.264152123446814 -2.188677577921357 0  1.435433220538441 -2.080366266940452 0  1.59881145094834 -1.957601067955973 0  1.750857836265695 -1.822900817249412 0  1.891896789545179 -1.676066562994126 0  2.020622823834988 -1.518407563067124 0  2.13627726139425 -1.350842583864749 0  2.237837933827648 -1.174935225697934 0  2.325243452213067 -0.9907006455036638 0  2.397424568578514 -0.8003762284767058 0  2.454052317048652 -0.6048722946852176 0  2.494754458169466 -0.4054370316360405 0  2.519290337505886 -0.2033702618129862 0  -0.003023513264980031 0.22596012812768 0  0.1113370401415048 -1.65039019257273 0  -0.7683919873348809 -1.485822459100415 0  0.9033190541880007 -1.4118690299817 0  -1.394983169739493 -0.9769445075071964 0  1.537236698269403 -0.7536659830211934 0  -1.732457026688607 -0.2283890341869418 0  1.754800399537119 -0.04010599061057662 0  -1.710736158608245 0.5331231289582508 0  1.640592279516127 0.7560160797673711 0  -1.3791474703643 1.203271870189668 0  1.233464371945493 1.366536059751552 0  -0.8094286098998765 1.669376406357643 0  0.6158949087776433 1.756037729812034 0  -0.1069661981404922 1.862367650098375 0  0.6246412859198505 -1.880770962410548 0  0.505784344105904 0.258536786985808 0  -0.5115188421089563 0.1957869275524508 0  -0.3966060220607482 -1.911250415910806 0  0.2654680453400403 -0.1824628453320978 0  -0.2288136024755691 -0.2062603223911864 0  -0.2684743739234133 0.6428409896256958 0  1.464897174731149 -1.304632830094335 0  -1.325507202241539 -1.499981980794645 0  -1.866979768090102 -0.7276736520512055 0  -0.2626830072479136 -1.294620639739375 0  0.4014181113781226 -1.246603824867261 0  1.990132970378416 0.4096290001314996 0  1.027610639689863 -0.9187236412764106 0  1.967395155737806 -0.4831525426092572 0  -0.7664401033328392 -1.035728406312059 0  -2.059655753490166 0.2371215385845027 0  0.2309317393533257 0.67362365318511 0  -1.802631254145477 1.023623488004219 0  0.2420748544795638 -2.07976842273896 0  -1.308205899262389 -0.5062040388086722 0  1.048548121554261 -1.821615030389864 0  -0.834149782858593 -1.925319051903743 0  -1.26443539412041 1.65356348179307 0  1.818974016971547 -1.07642121545995 0  1.362682898055429 -0.3292029208709884 0  1.666938589111763 1.224180959326916 0  -0.5262513723216966 2.022316632413989 0  -1.793301329526142 -1.126105074851644 0  1.552008591595792 0.327815567925495 0  -1.451337358445639 0.147845969920288 0  1.062949993417273 1.789827207656159 0  0.2910911013922427 2.067738476528495 0  -1.322917717069678 0.7635632184575967 0  1.243198392117154 0.9220920036603706 0  2.139606885016214 -0.136958208668142 0  -2.097143240770138 -0.4048182594539299 0  -1.042066060972374 -0.780048681563383 0  -0.9474507828247055 1.262887877440272 0  0.810722513165856 1.371592716494106 0  0.2247440576049448 1.599282079885346 0  -0.3993316862919974 1.558016113458937 0  -2.081634368136938 0.6066546819808849 0  0.6541568751961911 -1.006125173910183 0  2.015904453342582 0.7832273451092034 0  0.05782128366655809 -1.150108044419636 0  -1.700784285819575 1.370318490704904 0  -1.041431159628195 -1.273955973903569 0  1.098060838349008 -0.5820117429801073 0  -1.045552320315387 1.926555450329783 0  1.390868264445081 1.684266735288335 0  1.341654492890281 0.01882394543075343 0  -1.37730155994189 -0.1826587384333693 0  -0.1762436520204217 -2.185225657568918 0  1.305727752030622 0.5716559635077111 0  -0.1786183285617173 2.198159888031308 0  0.6293993734901898 2.100264002016877 0  1.381614664150635 -1.662647035368729 0  0.590496341305364 -0.08634228383180394 0  0.02320476156713463 -0.4112744294654487 0  0.5949414797455788 -1.537863131199378 0  -1.181322751022821 -1.828670521572434 0  -0.5568968937915592 -0.1604781854777468 0  -0.5966292681771156 0.5228133446430145 0  -2.042358629472413 -0.08737002018952086 0  -0.03314780152488182 0.8808873213223974 0  -1.392328331946641 0.4544710108139494 0  0.5570415159370544 0.6110135954249817 0  2.03536297577041 -0.8138799628133588 0  -1.127764409928672 1.005408528276986 0  0.4937344000249231 1.420746548336226 0  0.9738985636936949 1.09161040314815 0  -0.08299764578420943 1.510640407162518 0  -0.6421585879396594 1.348315008477407 0  -0.4560182032575104 -1.579686645976727 0  0.5335215829567959 -2.174747377903856 0  -1.516316984393328 -1.262367899048391 0  -0.6127223186316435 -2.136922040317597 0  1.646191024927915 -0.4732416930589142 0  -0.4329310875304954 -1.045589064318663 0  -0.01561401534989039 -1.928282165278389 0  1.763390040064409 -1.369270783344257 0  -1.751689331544206 0.2392528589983011 0  -1.621867409851692 -1.557595318764409 0  -0.1793482068205213 -1.671752055616898 0  1.943353277263109 1.087987029421629 0  -1.635273779593682 -0.5157262234940198 0  2.202403013997534 0.1761716459134846 0  0.88013585
[...]
<PointData  Vectors="f_3885-0"> 
<DataArray  type="Float64"  Name="f_3885-0"  NumberOfComponents="3" format="ascii">1.2344379859060310e-02 -8.3671282351719875e-02 0.0000000000000000e+00  2.9638559211962193e-02 -9.3913921936828862e-02 0.0000000000000000e+00  4.9678575689986453e-02 -1.0288859271478681e-01 0.0000000000000000e+00  7.2607950976500482e-02 -1.1040931825418913e-01 0.0000000000000000e+00  9.6632612883508523e-02 -1.1384876188049366e-01 0.0000000000000000e+00  1.2326147815371211e-01 -1.1476050303514733e-01 0.0000000000000000e+00  1.4863112469254630e-01 -1.0924051678032323e-01 0.0000000000000000e+00  1.7147804383416554e-01 -9.7836401972536305e-02 0.0000000000000000e+00  1.8134645887348533e-01 -7.6050295092127268e-02 0.0000000000000000e+00  1.7540932025320918e-01 -4.7672458873410095e-02 0.0000000000000000e+00  1.6187448531141022e-01 -2.0828683745875962e-02 0.0000000000000000e+00  1.4281521462852761e-01 2.5476309054916946e-03 0.0000000000000000e+00  1.1858132553516681e-01 2.2233082840582563e-02 0.0000000000000000e+00  8.8563096761055379e-02 3.8106648636939772e-02 0.0000000000000000e+00  4.9201320175903562e-02 4.8546512019898805e-02 0.0000000000000000e+00  2.7405872277692868e-04 5.2049663048463847e-02 0.0000000000000000e+00  -4.7761474387335773e-02 4.7875439174541137e-02 0.0000000000000000e+00  -8.7001940711261647e-02 3.6947795330388222e-02 0.0000000000000000e+00  -1.1582634747691697e-01 2.1267571963820713e-02 0.0000000000000000e+00  -1.3990092353149325e-01 1.1516553487482925e-03 0.0000000000000000e+00  -1.5899965815556638e-01 -2.2694864363237300e-02 0.0000000000000000e+00  -1.7165814690236453e-01 -4.9192001521198028e-02 0.0000000000000000e+00  -1.7683244230299563e-01 -7.6481621132712008e-02 0.0000000000000000e+00  -1.7101735647146604e-01 -1.0078795797125575e-01 0.0000000000000000e+00  -1.5080743345165606e-01 -1.1466145265933547e-01 0.0000000000000000e+00  -1.2429749887285389e-01 -1.1931816489107604e-01 0.0000000000000000e+00  -9.8123395536203001e-02 -1.1844340725351890e-01 0.0000000000000000e+00  -7.3214088435866076e-02 -1.1407043355202402e-01 0.0000000000000000e+00  -5.0669947607351419e-02 -1.0803472442674689e-01 0.0000000000000000e+00  -3.0135914356437889e-02 -9.7820208249905075e-02 0.0000000000000000e+00  -1.3000888881664632e-02 -8.7867619208826520e-02 0.0000000000000000e+00  1.6310014159494058e-03 -7.5928012506642939e-02 0.0000000000000000e+00  1.3490617261814853e-02 -6.2386484434563003e-02 0.0000000000000000e+00  2.3745524986638334e-02 -5.0268479374598815e-02 0.0000000000000000e+00  3.2191965327092419e-02 -3.8215257986253512e-02 0.0000000000000000e+00  3.6508636760282660e-02 -2.4238948852378244e-02 0.0000000000000000e+00  3.9741700605447419e-02 -1.2827482266352186e-02 0.0000000000000000e+00  4.0410497960836490e-02 -1.0322154461230289e-03 0.0000000000000000e+00  3.8522317616583680e-02 1.0389431163155619e-02 0.0000000000000000e+00  3.5623924915407140e-02 1.9964065717711588e-02 0.0000000000000000e+00  3.0171999751178451e-02 2.8750429775844986e-02 0.0000000000000000e+00  2.3866534667800306e-02 3.5596083486948066e-02 0.0000000000000000e+00  1.6142173322944854e-02 4.0756928671488869e-02 0.0000000000000000e+00  7.7311194494568015e-03 4.3900462710831228e-02 0.0000000000000000e+00  -7.7173989780996040e-04 4.4910705400049412e-02 0.0000000000000000e+00  -9.2929681872064313e-03 4.3899894935434204e-02 0.0000000000000000e+00  -1.7628283353216596e-02 4.0813779008470760e-02 0.0000000000000000e+00  -2.5154756815301809e-02 3.5706540073674846e-02 0.0000000000000000e+00  -3.1599603998866542e-02 2.8784320752110980e-02 0.0000000000000000e+00  -3.7256601541223677e-02 1.9851319346677582e-02 0.0000000000000000e+00  -4.0047328831604320e-02 1.0285639506373593e-02 0.0000000000000000e+00  -4.0959211230582125e-02 -2.7842640672657627e-04 0.0000000000000000e+00  -3.9879053723783503e-02 -1.1480799957590389e-02 0.0000000000000000e+00  -3.7859555742797264e-02 -2.5246378726442108e-02 0.0000000000000000e+00  -3.2035596321836161e-02 -3.6848828868358802e-02 0.0000000000000000e+00  -2.4654722119073980e-02 -4.9812142260012085e-02 0.0000000000000000e+00  -1.4899730410777644e-02 -6.2467705765798034e-02 0.0000000000000000e+00  -2.4853194050375991e-03 -7.3799296047081492e-02 0.0000000000000000e+00  1.3661653400153265e-01 9.8356648267742403e-04 0.0000000000000000e+00  1.3619628334722247e-01 1.0989298851938174e-02 0.0000000000000000e+00  1.3500916913170602e-01 2.0944222401545785e-02 0.0000000000000000e+00  1.3254981857025580e-01 3.2668746400227308e-02 0.0000000000000000e+00  1.2921055446284074e-01 4.4363920273943099e-02 0.0000000000000000e+00  1.2613469244560671e-01 5.2477238356135270e-02 0.0000000000000000e+00  1.2051660602090161e-01 6.4355500238789221e-02 0.0000000000000000e+00  1.1556702611933577e-01 7.2930769837284901e-02 0.0000000000000000e+00  1.0924227969427434e-01 8.2107582801257253e-02 0.0000000000000000e+00  1.0230825834257537e-01 9.0607337911473906e-02 0.0000000000000000e+00  9.4583485639984907e-02 9.8638667521349768e-02 0.0000000000000000e+00  8.7161572039634039e-02 1.0521557720259049e-01 0.0000000000000000e+00  7.6667499116138210e-02 1.1308569310334592e-01 0.0000000000000000e+00  6.9320412116050834e-02 1.1773503461335177e-01 0.0000000000000000e+00  5.8530615672057411e-02 1.2334333087785640e-01 0.0000000000000000e+00  4.7364353948044911e-02 1.2815719996441916e-01 0.0000000000000000e+00  3.9111420694013882e-02 1.3091039273739524e-01 0.0000000000000000e+00  2.6385046905560556e-02 1.3406842495756588e-01 0.0000000000000000e+00  1.6473170750119396e-02 1.3565878995532768e-01 0.0000000000000000e+00  6.4644787346762435e-03 1.3648633392068643e-01 0.0000000000000000e+00  -6.4681880033305907e-03 1.3648121697730300e-01 0.0000000000000000e+00  -1.6356756650768682e-02 1.3568327882223638e-01 0.0000000000000000e+00  -2.7342681625635648e-02 1.3390866415599792e-01 0.0000000000000000e+00  -3.8135796703122671e-02 1.3123206482603617e-01 0.0000000000000000e+00  -4.7527892800772860e-02 1.2810199855716212e-01 0.0000000000000000e+00  -5.8521006947945355e-02 1.2335893343558349e-01 0.0000000000000000e+00  -6.8272430798188843e-02 1.1824009123172152e-01 0.0000000000000000e+00  -7.7586310184590529e-02 1.1237660303794515e-01 0.0000000000000000e+00  -8.6362565670341396e-02 1.0578304127236716e-01 0.0000000000000000e+00  -9.4592377742085162e-02 9.8448716429322985e-02 0.0000000000000000e+00  -1.0291965203980788e-01 8.9863703317447224e-02 0.0000000000000000e+00  -1.0924767953836029e-01 8.2087308540666468e-02 0.0000000000000000e+00  -1.1495503852524942e-01 7.3841150230990499e-02 0.0000000000000000e+00  -1.2088179424043909e-01 6.3438505777402079e-02 0.0000000000000000e+00  -1.2614076041186573e-01 5.2466471055528006e-02 0.0000000000000000e+00  -1.2921361131230361e-01 4.4354597514131525e-02 0.0000000000000000e+00  -1.3291261918335989e-01 3.1584618358640931e-02 0.0000000000000000e+00  -1.3465785774679129e-01 2.3042002230304656e-02 0.0000000000000000e+00  -1.3625869546200592e-01 9.8565779271516888e-03 0.0000000000000000e+00  -1.3660997994325158e-01 1.1372241230458895e-03 0.0000000000000000e+00  -1.3605781740228226e-01 -1.2130502118036480e-02 0.0000000000000000e+00  -1.3502922993469069e-01 -2.0791865594286831e-02 0.0000000000000000e+00  -1.3236305634495357e-01 -3.3809294891583797e-02 0.0000000000000000e+00  -1.2993624382154156e-01 -4.2177650596876358e-02 0.0000000000000000e+00  -1.2523089418844985e-01 -5.4594594808197144e-02 0.0000000000000000e+00  -1.2149613608114360e-01 -6.2469549293560384e-02 0.0000000000000000e+00  -1.1484395654719051e-01 -7.3988718031943790e-02 0.0000000000000000e+00  -1.0990967858305617e-01 -8.1143439264569503e-02 0.0000000000000000e+00  -1.0161733609721899e-01 -9.1323635203737138e-02 0.0000000000000000e+00  -9.4759691849349376e-02 -9.8463422603386905e-02 0.0000000000000000e+00  -8.6323477327614098e-02 -1.0593764920151678e-01 0.0000000000000000e+00  -7.8421913015267269e-02 -1.1187928329221057e-01 0.0000000000000000e+00  -6.7323316336834041e-02 -1.1888096437749679e-01 0.0000000000000000e+00  -5.9603282154047109e-02 -1.2293745639569020e-01 0.0000000000000000e+00  -4.7548453011438223e-02 -1.2809221904418683e-01 0.0000000000000000e+00  -3.8014359817548984e-02 -1.3125607655799176e-01 0.0000000000000000e+00  -2.8285849970969484e-02 -1.3367045895968283e-01 0.0000000000000000e+00  -1.6471349581264141e-02 -1.3556708903248926e-01 0.0000000000000000e+00  -4.5345469049569631e-03 -1.3655641773295854e-01 0.0000000000000000e+00  5.5037590765580425e-03 -1.3653834413103902e-01 0.0000000000000000e+00  1.5508243717907683e-02 -1.3574843901820371e-01 0.0000000000000000e+00  2.8277441644137504e-02 -1.3367770600749149e-01 0.0000000000000000e+00  3.8016993216419673e-02 -1.3125672114342701e-01 0.0000000000000000e+00  4.7546265983953749e-02 -1.2808995541867840e-01 0.0000000000000000e+00  5.8528530293853569e-02 -1.2333974821224426e-01 0.0000000000000000e+00  6.9319732423475985e-02 -1.1772968766851578e-01 0.0000000000000000e+00  7.6657319956966050e-02 -1.1309028593253773e-01 0.0000000000000000e+00  8.7156105304847187e-02 -1.0521619410715483e-01 0.0000000000000000e+00  9.4582054996414117e-02 -9.8636327336182092e-02 0.0000000000000000e+00  1.0229867368891307e-01 -9.0610903450725602e-02 0.0000000000000000e+00  1.0924335314813378e-01 -8.2109663690620963e-02 0.0000000000000000e+00  1.1556093000651109e-01 -7.2929734972974655e-02 0.0000000000000000e+00  1.2051266887721074e-01 -6.4360973126682750e-02 0.0000000000000000e+00  1.2561403595392931e-01 -5.3541930206291687e-02 0.0000000000000000e+00  1.2952490718120940e-01 -4.3234118713638955e-02 0.0000000000000000e+00  1.3257804112959304e-01 -3.2688455932090667e-02 0.0000000000000000e+00  1.3474973895728404e-01 -2.1898109806117495e-02 0.0000000000000000e+00  1.3607822808101402e-01 -1.0966233382913505e-02 0.0000000000000000e+00  -2.3014471105972504e-03 7.2336600142510185e-02 0.0000000000000000e+00  -2.9950115510099361e-03 -4.5160798753267492e-02 0.0000000000000000e+00  -2.7600214266445939e-03 -6.5010101227772024e-02 0.0000000000000000e+00  8.7154292042697958e-03 -6.7972888923813965e-02 0.0000000000000000e+00  -2.9518693723441982e-02 -5.6779827298622181e-02 0.0000000000000000e+00  3.5004861438791793e-02 -5.1868896104885098e-02 0.0000000000000000e+00  -5.0410401058073144e-02 -5.0099517985589467e-02 0.0000000000000000e+00  5.6546220301904496e-02 -4.5811693901549905e-02 0.0000000000000000e+00  -7.9590261967836945e-02 -2.7690444413820653e-02 0.0000000000000000e+00  8.5388352970587236e-02 -1.4565261772882502e-02 0.0000000000000000e+00  -9.0137002104395333e-02 1.9502206966388696e-02 0.0000000000000000e+00  8.6344704884711146e-02 3.3633833749813546e-02 0.0000000000000000e+00  -6.3704532134229330e-02 6.8770293821928230e-02 0.0000000000000000e+00  5.1567168149484657e-02 7.8834662781896991e-02 0.0000000000000000e+00  -8.3020840277720515e-03 9.2639560777656130e-02 0.0000000000000000e+00  2.2580356762528168e-02 -9.6426360452238111e-02 0.0000000000000000e+00  1.1866985048196745e-02 1.9674988909989522e-02 0.0000000000000000e+00  -9.3071903288334708e-03 1.7468732687847544e-02 0.0000000000000000e+00  -1.2801085171753785e-02 -9.2646571980503745e-02 0.0000000000000000e+00  -5.3467450911033727e-02 7.3901719952348469e-02 0.0000000000000000e+00  4.9462364851382487e-02 7.8490015591897777e-02 0.0000000000000000e+00  -1.8396635733413668e-02 5.3600839746033725e-02 0.0000000000000000e+00  6.6359891538955634e-02 -7.1723012743044740e-02 0.0000000000000000e+00  -6.1838246338608495e-02 -8.1970634000324449e-02 0.0000000000000000e+00  -8.4821206373811964e-02 -5.1378460128576338e-02 0.0000000000000000e+00  3.8539809674255472e-02 -8.2879273600139410e-03 0.0000000000000000e+00  -5.0362541249636787e-02 -2.3823051537688170e-02 0.0000000000000000e+00  1.0629412985074656e-01 -1.2720373259224399e-02 0.0000000000000000e+00  -3.2084511763252138e-02 -5.9748152590611336e-02 0.0000000000000000e+00  9.2457129369912530e-02 -4.2534604074456007e-02 0.0000000000000000e+00  5.7211445979986481e-02 -6.0064697983858648e-02 0.0000000000000000e+00  -1.0941199758075558e-01 -1.7940064451859618e-02 0.0000000000000000e+00  1.4699236872528705e-02 5.5135622487490543e-02 0.0000000000000000e+00  -1.1204534337231922e-01 2.2790561224219179e-02 0.0000000000000000e+00  9.7870037817622546e-03 -1.1032026403304375e-01 0.0000000000000000e+00  3.0560232484728077e-02 -6.2248341497899845e-02 0.0000000000000000e+00  5.1867057933669823e-02 -1.0175639814753612e-01 0.0000000000000000e+00  -4.0078876528680141e-02 -1.0574568524358505e-01 0.0000000000000000e+00  -9.0879846962757485e-02 7.2113836078389129e-02 0.0000000000000000e+00  9.4442271694652538e-02 -6.2296391788559141e-02 0.0000000000000000e+00  -2.4756048153563703e-02 -6.6370700667587074e-02 0.0000000000000000e+00  1.0810670594274796e-01 3.6040383782940659e-02 0.0000000000000000e+00  -4.0666076517698206e-02 1.0841467861724205e-01 0.0000000000000000e+00  -9.2722982913348212e-02 -6.5436625025004441e-02 0.0000000000000000e+00  4.4517951956323694e-02 -5.1174359177996107e-02 0.0000000000000000e+00  -1.6458658778610007e-02 -6.6300665943590284e-02 0.0000000000000000e+00  7.9972246621888787e-02 8.3981706602705028e-02 0.0000000000000000e+00  2.3807485830801202e-02 1.1312691189340225e-01 0.0000000000000000e+00  -5.8487596307923599e-02 -3.2870439759020903e-02 0.0000000000000000e+00  6.3701315307343118e-02 -1.9967596651747108e-02 0.0000000000000000e+00  1.1305248745940087e-01 -2.6969608536761239e-02 0.0000000000000000e+00  -1.0849300546397496e-01 -3.8526322835865913e-02 0.0000000000000000e+00  5.5164956024617684e-02 -6.0050126469529855e-02 0.0000000000000000e+00  -6.4785080260875358e-02 1.8537012300017981e-02 0.0000000000000000e+00  6.1127741229543522e-02 3.1419484167332437e-02 0.0000000000000000e+00  1.9954849754846675e-02 6.5477196103485541e-02 0.0000000000000000e+00  -3.2083267289316701e-02 5.9598115214495359e-02 0.0000000000000000e+00  -1.2105420235428938e-01 6.5702776684286772e-03 0.0000000000000000e+00  -7.5990854406569788e-02 -6.2857086883364638e-02 0.0000000000000000e+00  1.1989071324475729e-01 1.6357886031927726e-02 0.0000000000000000e+00  -1.5047769839054400e-02 2.5939081763204239e-02 0.0000000000000000e+00  -1.1155031368615449e-01 5.4750056750344861e-02 0.0000000000000000e+00  -1.0339936286404226e-02 -6.4202535851738962e-02 0.0000000000000000e+00  -7.0615227173943390e-02 -6.8993375734228646e-02 0.0000000000000000e+00  -7.5118922529388885e-02 9.9618677790777169e-02 0.0000000000000000e+00  9.6769913954873332e-02 7.8087506284961777e-02 0.0000000000000000e+00  -1.2984130075358978e-02 -7.6979290132462824e-02 0.0000000000000000e+00  1.7683660111710565e-02 -7.2134722029471895e-02 0.0000000000000000e+00  -8.9546254060373868e-03 -1.2075015382167670e-01 0.0000000000000000e+00  3.8190577904713176e-02 -5.2531134635788762e-02 0.0000000000000000e+00  -1.2908673322072534e-02 1.2445982290747570e-01 0.0000000000000000e+00  4.7554528950839794e-02 1.1523149166160201e-01 0.0000000000000000e+00  7.4627200894468365e-02 -9.4009740193914296e-02 0.0000000000000000e+00  -3.4915845142499409e-02 -1.9953162597864463e-02 0.0000000000000000e+00  -1.6143979052899805e-02 9.4541245336574556e-02 0.0000000000000000e+00  -5.5185990770686907e-03 -5.8910429796136657e-02 0.0000000000000000e+00  -6.3316839970584293e-02 -1.0330331948107307e-01 0.0000000000000000e+00  4.6879325675997514e-02 -1.3735004911383741e-02 0.0000000000000000e+00  -2.8451077370641079e-02 9.0987970910735381e-03 0.0000000000000000e+00  -1.0128129270116684e-01 -3.1846699436974400e-02 0.0000000000000000e+00  -2.7741724618920325e-03 5.6542781677334369e-02 0.0000000000000000e+00  -3.6535833797520789e-02 -5.6192020417079595e-02 0.0000000000000000e+00  2.9546818824864676e-02 1.5359627630266225e-02 0.0000000000000000e+00  1.0904847525332238e-01 -5.1020648589327006e-02 0.0000000000000000e+00  -6.3689774642603322e-02 -1.0559535074596043e-02 0.0000000000000000e+00  3.9895411515972000e-02 4.3458756700083742e-02 0.0000000000000000e+00  5.7921326996389341e-02 -3.5713034174081624e-03 0.0000000000000000e+00  -5.6477247371929679e-03 5.7245966191692192e-02 0.0000000000000000e+00  -4.8819711860195437e-02 3.3333724870416387e-02 0.0000000000000000e+00  7.1264928539463033e-03 -5.3216064545879613e-02 0.0000000000000000e+00  2.7093046257238778e-02 -1.2254991956993977e-01 0.0000000000000000e+00  -6.8461588312892771e-02 -6.9920053305599444e-02 0.0000000000000000e+00  -3.1875267486370568e-02 -1.2021235236672953e-01 0.0000000000000000e+00  3.8013290333749693e-02 -5.0287701657122756e-02 0.0000000000000000e+00  8.6846884852081863e-02 -3.7603963449830718e-02 0.0000000000000000e+00  -9.0720117391328260e-04 -8.8627534511961217e-02 0.0000000000000000e+00  9.8433430189747012e-02 -7.7320761359100737e-02 0.0000000000000000e+00  -6.7957141759574888e-02 -4.0208783869949340e-02 0.0000000000000000e+00  -9.0838659719728654e-02 -8.8109800515305869e-02 0.0000000000000000e+00  2.7562248565171843e-03 -5.0747509285071900e-02 0.0000000000000000e+00  1.2037978752481690e-01 3.9135875648294224e-02 0.0000000000000000e+00  -3.7173851252085811e-02 -5.2435353078075210e-02 0.0000000000000000e+00  1.2275955825933293e-01 -1.0279693968125132e-02 0.0000000000000000e+00  4.6798336348843492e-02 -1.1777958502414164e-01 0.0000000000000000e+00  2.7619882103732393e-02 -5.7299006245595654e-02 0.0000000000000000e+00  1.6137400999411373e-02 -6.4169634864864600e-02 0.0000000000000000e+00  1.1561769646384356e-03 -6.6605891074947604e-02 0.0000000000000000e+00  4.5872467431197651e-03 -7.6164065988099175e-02 0.0000000000000000e+00  -1.1179568900121033e-01 -5.8225411613511940e-02 0.0000000000000000e+00  -6.8496567555519361e-03 8.1108747722761040e-02 0.0000000000000000e+00  -3.6555134675879696e-02 -8.0194545275476051e-02 0.0000000000000000e+00  5.5751735302740343e-02 1.5701678592088417e-02 0.0000000000000000e+00  4.0544286963101347e-02 -4.8292211421036298e-02 0.0000000000000000e+00  1.0787876457397141e-01 6.8904744449862859e-02 0.0000000000000000e+00  -1.2493567343266829e-01 3.5444330346359132e-02 0.0000000000000000e+00  -1.2739084248893853e-01 -1.2085629773327659e-02 0.0000000000000000e+00  -1.1714579824574822e-01 -4.5575629969434650e-02 0.0000000000000000e+00  4.1666750882015909e-03 -3.8423760080370769e-03 0.0000000000000000e+00  -4.3699598240515627e-02 -5.3507055204472929e-02 0.0000000000000000e+00  -8.6147923975246551e-02 -1.3227956856481137e-02 0.0000000000000000e+00  -1.0837602301103930e-03 -4.6248690620149600e-02 0.0000000000000000e+00  -9.2131113803426371e-03 -3.6828046949470915e-02 0.0000000000000000e+00  6.4308649788697131e-02 9.7142702709615808e-02 0.0000000000000000e+00  1.2335465712010608e-01 -3.4250098206871603e-02 0.0000000000000000e+00  8.9272259506864043e-02 8.4213474081850981e-02 0.0000000000000000e+00  -5.9501984062244960e-02 9.9850978081333988e-02 0.0000000000000000e+00  4.5936463800611116e-02 -8.4112547116637099e-02 0.0000000000000000e+00  -1.1227757512034646e-01 6.6456310375439059e-02 0.0000000000000000e+00  -9.9964333157586710e-02 8.4271379639742489e-02 0.0000000000000000e+00  -1.0638694250174512e-01 -7.5258012755332795e-02 0.0000000000000000e+00  1.0012921745128389e-02 6.0920813314045009e-02 0.0000000000000000e+00  -8.2090137829338144e-03 5.9837447738193432e-02 0.0000000000000000e+00  -1.9107620951533200e-03 6.8945733853733759e-02 0.0000000000000000e+00  2.4881629758545597e-02 -8.5166425957455827e-02 0.0000000000000000e+00  9.9631646261153770e-02 -7.9694494042282141e-02 0.0000000000000000e+00  -3.1598993572206829e-02 2.7698494627169529e-02 0.0000000000000000e+00  -8.5038845404051891e-02 -1.3588434492641872e-02 0.0000000000000000e+00  -8.0705422734146853e-02 -9.9226444779108844e-02 0.0000000000000000e+00  -1.3131313799424322e-02 5.9050622770443678e-02 0.0000000000000000e+00  6.8435468146730537e-03 5.8825560742161352e-02 0.0000000000000000e+00  -3.0971126637845708e-02 -5.1674601198688594e-02 0.0000000000000000e+00  -1.9252257270521964e-02 -2.6030677476942328e-02 0.0000000000000000e+00  -1.0884582327426863e-01 3.5657719661657834e-03 0.0000000000000000e+00  7.3898312069271485e-02 -4.9223189823415642e-