<?xml version="1.0"?>
<VTKFile type="UnstructuredGrid"  version="0.1"  >
<UnstructuredGrid>
<Piece  NumberOfPoints="995" NumberOfCells="1854">
<Points>
<DataArray  type="Float64"  NumberOfComponents="3"  format="ascii">-0.9974731645926486 0.03081132169908179 0  -0.9851924951675073 -0.08057827215168255 0  -0.9594655450553156 -0.1904787475117485 0  -0.9210201325380339 -0.296177656347122 0  -0.8699849261141496 -0.3971870834531439 0  -0.8085243022574502 -0.4899615413514183 0  -0.738267309744454 -0.573432673753703 0  -0.6628719377367555 -0.6452304821185096 0  -0.5857544411252471 -0.7049067622135213 0  -0.5059624964065188 -0.7550651798294393 0  -0.4225236389476292 -0.797417635928891 0  -0.3364484226365216 -0.8314951960893863 0  -0.247762861709485 -0.8577224726667468 0  -0.1574477623514827 -0.8758481098629288 0  -0.06609827000191595 -0.8857262745560973 0  0.0258385655311298 -0.8874906949063818 0  0.1174124857267869 -0.8809279310522005 0  0.2090360464763954 -0.866126669577434 0  0.2986269141731387 -0.8432740886163792 0  0.3854668320947008 -0.8126430965999898 0  0.4704409673067891 -0.7735039301460559 0  0.5512147488895192 -0.7269721448511255 0  0.6287844635635966 -0.6719186752810855 0  0.7054519628739939 -0.6052052395726994 0  0.7783906177402069 -0.5265529775039979 0  0.8440001831152762 -0.4375410917237441 0  0.8997265650199735 -0.3402345725942263 0  0.9434676199492654 -0.2367787343456894 0  0.9746222668000547 -0.1294836414285631 0  0.9930780754899807 -0.01804325627135746 0  0.9978868456239518 0.09430031592833749 0  0.9892912307535837 0.206185666178503 0  0.9677568075542433 0.315106431573219 0  0.9335948720197627 0.4206342174775703 0  0.8871049548862144 0.5222955852209877 0  0.8300429071710451 0.6170307518128411 0  0.7617480820769427 0.7054929728693347 0  0.6843178282642898 0.7850207925317614 0  0.5984148321102698 0.8552871215996869 0  0.503788287677252 0.9164445014709024 0  0.4037627519896627 0.9663323528453118 0  0.2996971843566554 1.004653248762243 0  0.1918143171901599 1.031352126174043 0  0.08001000439867684 1.046309082412816 0  -0.03199756751713355 1.048928147448615 0  -0.143758883004942 1.039257946815009 0  -0.2533423939413053 1.01756290139576 0  -0.3598297691565474 0.9838154708649213 0  -0.4619477614883193 0.9388656663357926 0  -0.5575874929552084 0.8834734284035537 0  -0.6477565593142046 0.816718657565376 0  -0.7294677824368727 0.7406470544179553 0  -0.8013830804624372 0.6567099742524869 0  -0.8641867718284223 0.5638390313844867 0  -0.9155327755351572 0.4650220864929389 0  -0.9552403318829668 0.3603263203554345 0  -0.982208125738442 0.2528283915730585 0  -0.996345255281038 0.1429209604599719 0  -2.197982241891351 0.1031372210914817 0  -2.19798499686486 -0.1031449740087344 0  -2.17866515684883 -0.3084993111792239 0  -2.140191440322047 -0.5111643670273759 0  -2.08293896815767 -0.7093248321109964 0  -2.007342881276116 -0.9012563346618075 0  -1.914131490594454 -1.085270580179133 0  -1.804111739759657 -1.259746887280736 0  -1.678216145526698 -1.423153089376396 0  -1.53758191094135 -1.574050058972597 0  -1.38341777050157 -1.711109402435566 0  -1.217119333135663 -1.833146871894783 0  -1.040102966681834 -1.939055278129411 0  -0.8539653281476578 -2.027943616051836 0  -0.6603007861223653 -2.099001001098866 0  -0.4608631369515435 -2.151610617438234 0  -0.2573437863312931 -2.185312355102712 0  -0.05159184846723146 -2.199807442896052 0  0.1546345740012695 -2.194956852951721 0  0.35949640075104 -2.170834022850018 0  0.5611967657604254 -2.127645914481295 0  0.7579658686131455 -2.065730463890863 0  0.9480753309652429 -1.98568988796246 0  1.129848170520865 -1.8881675058093 0  1.301696785035128 -1.774071120931083 0  1.462105479358803 -1.644397030213431 0  1.609670319458155 -1.500249081459076 0  1.743067035340149 -1.342924706749255 0  1.861155963102206 -1.173793836264513 0  1.962905249597846 -0.9943678524486054 0  2.047379737084251 -0.806176940562037 0  2.113877454056109 -0.6109157503131364 0  2.161795277652443 -0.4102862641802277 0  2.190717167638474 -0.2060494477827078 0  2.200401411234965 -8.607595893712442e-06 0  2.190718954349272 0.206043575844756 0  2.161798704570148 0.4102818673345339 0  2.11389569775612 0.6109214857786928 0  2.047384951737552 0.8061748115103909 0  1.962911805775671 0.9943678187329883 0  1.86118166640598 1.173797003435765 0  1.743068098088429 1.34291854580178 0  1.609673594098516 1.500252313176595 0  1.462100903549742 1.644383101913805 0  1.301693858544622 1.774072852187988 0  1.129848052079935 1.8881730086834 0  0.9480778502664198 1.985691682389473 0  0.7579717753966568 2.065744405588468 0  0.5612007307496479 2.127646199779119 0  0.3594958740286285 2.17084809408048 0  0.154639405184791 2.194974310315372 0  -0.05158486931565105 2.199792276249248 0  -0.2573538155614249 2.185301353390114 0  -0.4608597180726209 2.151613643773701 0  -0.6603061953617289 2.098989526076568 0  -0.8539627824816256 2.027947242383564 0  -1.040111652045092 1.939071030504492 0  -1.217114223076842 1.833151545062175 0  -1.383433462978007 1.711116535613448 0  -1.53758294946974 1.574051790679378 0  -1.678219999173808 1.423160450952031 0  -1.804116031166784 1.259747274642115 0  -1.914147455033961 1.085277107239411 0  -2.007367257924462 0.9012551010911759 0  -2.082922056253475 0.7093221329148659 0  -2.14020993662125 0.5111523845837973 0  -2.178667838757474 0.3085097349889082 0  0.001020022042863334 0.1267376522837763 0  0.3034820312241331 -1.533306389443311 0  -0.3750620173394729 -1.517483152821451 0  0.9253637773827573 -1.267779329597906 0  -0.942829670892138 -1.260359378904439 0  1.369558865297494 -0.7886923046725409 0  -1.405254128334692 -0.7261094584998149 0  1.594249999666735 -0.1002936508451113 0  -1.599381243338116 -0.02636106560955141 0  1.535705134115181 0.4923349651464979 0  -1.51606947312221 0.5498012755265489 0  1.248476328665927 1.03072482235057 0  -1.201834949719908 1.086584478447475 0  0.03567473711087604 1.624563824899009 0  0.643412911129444 1.493059633866891 0  -0.6389458117024629 1.489062949015953 0  -0.5139122091958501 0.0676852477673522 0  0.5154285903212621 0.09510521287950881 0  -0.221782089678511 -0.3061017950405543 0  -0.2676615564761323 0.5145575940325836 0  0.2555395031052565 0.5215626796988883 0  0.2501795398043806 -0.2982541110941083 0  0.7016528211575458 -1.659963231872804 0  -0.7737908062673351 -1.630233588192974 0  -0.04200991788479767 -1.779572967684397 0  0.8649114623277825 1.146776820465254 0  1.147185145149746 1.417823977244263 0  1.390180707943006 -1.17551468659415 0  1.693434327562169 -0.5037223318735919 0  1.301090424070761 -0.3810623345268306 0  -1.357014904315999 -1.140372779853002 0  -1.744641014073821 -0.5145210657364794 0  -1.369996546064058 -0.354183764197273 0  1.810937547319905 0.2335534875365134 0  1.600121676417099 0.8850806506420855 0  -1.043746490888146 1.470388290530932 0  -1.559376335585958 0.9477457138985835 0  0.3897927872614128 1.791915013637085 0  -0.3040261705020692 1.809990280805752 0  -1.802540752016209 0.310542987662417 0  -1.021597515970093 -0.8784196000809753 0  -0.03340167703598269 -1.309352715011302 0  0.5210363314613693 -1.211214486117415 0  -0.5677715889389676 -1.163917915473878 0  0.9822731666923986 -0.8958566289578773 0  -0.8257991322747859 1.146703416464862 0  -0.2694927500848597 1.388626434892343 0  -1.194002756804909 0.7108607975853699 0  1.216375949340585 0.6195753695519547 0  1.193068252422142 -1.468498728048255 0  -0.5493224933965758 -0.2772304685713967 0  1.33006267945455 0.1958709869648358 0  -0.5962803443531642 0.3831793222742531 0  0.5719350865807842 -0.2485437362019189 0  0.3006377452893785 1.368359044269399 0  -1.881212892401922 -0.1896672040038907 0  0.430024784069375 -1.837312009167777 0  -0.4847476171985045 -1.830590759216423 0  -1.347415148940542 0.2172530298537783 0  0.5854813610378417 0.4175570392338738 0  0.920652555786576 1.654118610822239 0  -1.08179421667231 -1.55061498597064 0  0.01798230897285357 0.7441285942102849 0  1.093011977344438 -0.6152082460116054 0  -1.125181127502823 -0.5610118565161365 0  1.624337576465635 -0.9801548551208789 0  -1.621169376789448 -0.9681083934092998 0  -0.8470370301955471 1.712263357207774 0  0.01733525390238892 -0.519668859874777 0  1.910604951763454 -0.1023839945049437 0  -1.285765939035342 -0.08032475958865425 0  -1.792283607058798 0.6872333078436437 0  1.28238780211595 -0.09829785513838588 0  1.789677776468083 0.6638474457807194 0  1.509302514826973 1.171537595927078 0  -1.459684596186499 1.231760327691693 0  1.018347247536871 0.8390648170679903 0  0.04578959419432507 1.923368660799738 0  0.5700032787202137 1.203612890091548 0  0.2381602096286044 -1.238002410429285 0  -0.5247508542169665 1.217177528386733 0  -0.2789631722902655 -1.171288648452848 0  0.7030855946380367 -1.001298812801425 0  -0.9808029101020058 0.9009539418479665 0  0.01441817727538925 1.343624578475392 0  -0.7426001644616703 -0.9635225707183982 0  -0.5764497480639847 1.760694811597778 0  0.6740192424465503 1.800452709669943 0  0.9353570609428445 -1.533869773876889 0  -0.7426626214345509 -0.06415841456033879 0  0.7546495157674146 0.1435866189056349 0  -1.265709183108586 0.4599203701153138 0  -1.855452196030812 0.06209922192819573 0  -0.2662297394339502 0.2402419095203852 0  -0.2583915368373924 -0.03036109409360672 0  -0.3124500988462265 0.7489339349765279 0  -0.3635474821705724 -0.5199013330462444 0  -0.004209757449128522 0.3965609582176424 0  0.2603294422647461 -0.01472921656715687 0  0.2678635868230713 0.2539010215575825 0  -1.627677485801604 -0.2701623880914304 0  0.7090804777820168 -1.401031458918153 0  0.2409249786927327 -0.5653542437908885 0  0.4689437307017789 0.6497107015746666 0  0.01130804482126924 -0.146026785329821 0  0.8803301043065044 1.402517687419978 0  -0.7200065909922734 -1.379133241617591 0  -1.191647689034902 -1.325462544797004 0  1.779118800515386 -0.7586654872061009 0  1.391805593472121 1.396876242284563 0  -1.65956507097071 -0.7349382465517332 0  -0.4123717309048945 1.583844269431697 0  -1.243149839547136 1.332089599182259 0  0.
[...]
<PointData  Vectors="f_2277-0"> 
<DataArray  type="Float64"  Name="f_2277-0"  NumberOfComponents="3" format="ascii">-1.0804083733659807e-02 -8.4979422138087748e-02 0.0000000000000000e+00  8.7285395053863755e-03 -9.6714911393073935e-02 0.0000000000000000e+00  3.1346517142196308e-02 -1.0683437694959978e-01 0.0000000000000000e+00  5.5845393767958711e-02 -1.1328621964744261e-01 0.0000000000000000e+00  8.2411331169862864e-02 -1.1669549050947116e-01 0.0000000000000000e+00  1.0709208326132091e-01 -1.1300565884277061e-01 0.0000000000000000e+00  1.2647202136991581e-01 -1.0135155287272464e-01 0.0000000000000000e+00  1.3454266729912692e-01 -8.0326715640962443e-02 0.0000000000000000e+00  1.3136633295091726e-01 -5.5083363485985394e-02 0.0000000000000000e+00  1.2098040943147330e-01 -3.0894762232649378e-02 0.0000000000000000e+00  1.0733904141890882e-01 -1.0312884818105777e-02 0.0000000000000000e+00  8.8449277829436942e-02 7.6335643700439857e-03 0.0000000000000000e+00  6.6294514536140478e-02 2.1778203708713532e-02 0.0000000000000000e+00  4.2336948451224203e-02 3.1795841608263958e-02 0.0000000000000000e+00  1.7482612085908428e-02 3.7449358095313211e-02 0.0000000000000000e+00  -7.8850735949187716e-03 3.8218329376640645e-02 0.0000000000000000e+00  -3.2573383224595194e-02 3.4850270336744850e-02 0.0000000000000000e+00  -5.6576920172031468e-02 2.6836648116296630e-02 0.0000000000000000e+00  -7.8586787202694741e-02 1.4562631988761484e-02 0.0000000000000000e+00  -9.9061513489493186e-02 -1.7688020845844454e-03 0.0000000000000000e+00  -1.1491281066067183e-01 -2.1380614567615315e-02 0.0000000000000000e+00  -1.2740558599618279e-01 -4.4353459488911132e-02 0.0000000000000000e+00  -1.3504965312494333e-01 -6.9676136669396649e-02 0.0000000000000000e+00  -1.3167347057614331e-01 -9.2038004100466600e-02 0.0000000000000000e+00  -1.1604849286927719e-01 -1.0779967424049398e-01 0.0000000000000000e+00  -9.3112830218743378e-02 -1.1405161866264556e-01 0.0000000000000000e+00  -6.6421965606133518e-02 -1.1417166770807556e-01 0.0000000000000000e+00  -4.0943626916396414e-02 -1.0968761062784492e-01 0.0000000000000000e+00  -1.8710923058182574e-02 -1.0250978644005598e-01 0.0000000000000000e+00  1.9845602864708924e-03 -9.0823162455081055e-02 0.0000000000000000e+00  1.9787846314957031e-02 -7.7551719837707533e-02 0.0000000000000000e+00  3.4691404535514031e-02 -6.3028451645796665e-02 0.0000000000000000e+00  4.6691649126119388e-02 -4.9035405394372601e-02 0.0000000000000000e+00  5.5884646431411091e-02 -3.4368094296915293e-02 0.0000000000000000e+00  6.1645938277509971e-02 -1.7792735652366911e-02 0.0000000000000000e+00  6.5531905791329018e-02 -3.3120380127092692e-03 0.0000000000000000e+00  6.5615761551757440e-02 1.2529572285614510e-02 0.0000000000000000e+00  6.3828655975471216e-02 2.6426649219319382e-02 0.0000000000000000e+00  5.9921288217427149e-02 3.9067866718387100e-02 0.0000000000000000e+00  5.1411223658123541e-02 5.1916778191264057e-02 0.0000000000000000e+00  4.2632984004915983e-02 6.1767006324961300e-02 0.0000000000000000e+00  3.3398213792237612e-02 6.9132429311003621e-02 0.0000000000000000e+00  2.2818046164083238e-02 7.4510964063417798e-02 0.0000000000000000e+00  8.8352016353852470e-03 7.7950751721185596e-02 0.0000000000000000e+00  -3.6897672856637813e-03 7.8554892401421342e-02 0.0000000000000000e+00  -1.7008479888342309e-02 7.6651877336923011e-02 0.0000000000000000e+00  -2.8914341245103316e-02 7.2233251310889438e-02 0.0000000000000000e+00  -3.9909253901559673e-02 6.5451636536118088e-02 0.0000000000000000e+00  -4.9417006262193502e-02 5.6227761972187706e-02 0.0000000000000000e+00  -5.5619727662760070e-02 4.6133384435494522e-02 0.0000000000000000e+00  -6.2361786269104678e-02 3.2851114267774338e-02 0.0000000000000000e+00  -6.6040535685059965e-02 1.8659456610943367e-02 0.0000000000000000e+00  -6.5906954168326592e-02 5.1099281088376001e-03 0.0000000000000000e+00  -6.4773254478835141e-02 -1.1685065287891445e-02 0.0000000000000000e+00  -5.9865490486191456e-02 -2.7400298467312106e-02 0.0000000000000000e+00  -5.2182357012058679e-02 -4.3899127489142258e-02 0.0000000000000000e+00  -4.1099343708501046e-02 -5.7896024433464158e-02 0.0000000000000000e+00  -2.7355269400235888e-02 -7.1333574056737528e-02 0.0000000000000000e+00  -1.2876582446060239e-01 6.0447307601583546e-03 0.0000000000000000e+00  -1.2877231518843055e-01 -6.0637294550280486e-03 0.0000000000000000e+00  -1.2763243078395978e-01 -1.8052754951719575e-02 0.0000000000000000e+00  -1.2535476457322528e-01 -2.9943741021758619e-02 0.0000000000000000e+00  -1.2203754914619641e-01 -4.1543568120793017e-02 0.0000000000000000e+00  -1.1756730019115791e-01 -5.2781765761701932e-02 0.0000000000000000e+00  -1.1211361273482766e-01 -6.3572706836046544e-02 0.0000000000000000e+00  -1.0570649889571551e-01 -7.3795933681464754e-02 0.0000000000000000e+00  -9.8321438864265420e-02 -8.3376178576327536e-02 0.0000000000000000e+00  -9.0100624371034985e-02 -9.2210907855345192e-02 0.0000000000000000e+00  -8.1041265226410891e-02 -1.0023345061886588e-01 0.0000000000000000e+00  -7.1323567357770512e-02 -1.0740497190484997e-01 0.0000000000000000e+00  -6.0931647263656186e-02 -1.1359117434499444e-01 0.0000000000000000e+00  -5.0045159556530605e-02 -1.1882338872910300e-01 0.0000000000000000e+00  -3.8666560300272011e-02 -1.2299209227956140e-01 0.0000000000000000e+00  -2.7026576626600261e-02 -1.2607315834867933e-01 0.0000000000000000e+00  -1.5061943538276728e-02 -1.2805095498419702e-01 0.0000000000000000e+00  -3.0468092925378374e-03 -1.2889713552671575e-01 0.0000000000000000e+00  9.0571423572238449e-03 -1.2858177604439691e-01 0.0000000000000000e+00  2.1062615617372646e-02 -1.2717320299014767e-01 0.0000000000000000e+00  3.2878385273347244e-02 -1.2467307773264845e-01 0.0000000000000000e+00  4.4406044135094372e-02 -1.2101391203283948e-01 0.0000000000000000e+00  5.5548026690161595e-02 -1.1635200353319942e-01 0.0000000000000000e+00  6.6188367160476491e-02 -1.1060131705263167e-01 0.0000000000000000e+00  7.6260852305604768e-02 -1.0391835512235753e-01 0.0000000000000000e+00  8.5661351682515069e-02 -9.6350015107723147e-02 0.0000000000000000e+00  9.4317938712559363e-02 -8.7888296559247459e-02 0.0000000000000000e+00  1.0210041638493146e-01 -7.8667425449022541e-02 0.0000000000000000e+00  1.0900541057388399e-01 -6.8748538265661518e-02 0.0000000000000000e+00  1.1498968166978349e-01 -5.8265662120831806e-02 0.0000000000000000e+00  1.1990746827990642e-01 -4.7220151812332224e-02 0.0000000000000000e+00  1.2380961588629301e-01 -3.5778455833625260e-02 0.0000000000000000e+00  1.2661284391032371e-01 -2.4036902694548230e-02 0.0000000000000000e+00  1.2831027916230331e-01 -1.2068868788773959e-02 0.0000000000000000e+00  1.2890986704653859e-01 -1.9687201569854717e-05 0.0000000000000000e+00  1.2831361694088345e-01 1.2057754056640174e-02 0.0000000000000000e+00  1.2661983145917269e-01 2.4028898249116974e-02 0.0000000000000000e+00  1.2384740357296035e-01 3.5793119797428503e-02 0.0000000000000000e+00  1.1991898772365769e-01 4.7213580283259629e-02 0.0000000000000000e+00  1.1500057308347308e-01 5.8269207731598945e-02 0.0000000000000000e+00  1.0906416236402310e-01 6.8749645224021563e-02 0.0000000000000000e+00  1.0210223492176461e-01 7.8653927519266961e-02 0.0000000000000000e+00  9.4324630689871000e-02 8.7895150588573653e-02 0.0000000000000000e+00  8.5652232938024292e-02 9.6319076795535322e-02 0.0000000000000000e+00  7.6253111060299528e-02 1.0392335431419829e-01 0.0000000000000000e+00  6.6187817280389569e-02 1.1061347918383468e-01 0.0000000000000000e+00  5.5548702123596617e-02 1.1635763883127354e-01 0.0000000000000000e+00  4.4420470965292079e-02 1.2104275792646124e-01 0.0000000000000000e+00  3.2891527456896143e-02 1.2467237925221489e-01 0.0000000000000000e+00  2.1058152213509148e-02 1.2720401673990503e-01 0.0000000000000000e+00  9.0714329643268882e-03 1.2861932907158607e-01 0.0000000000000000e+00  -3.0252149934191204e-03 1.2886501954240154e-01 0.0000000000000000e+00  -1.5087333285353504e-02 1.2802723359447032e-01 0.0000000000000000e+00  -2.7015712975028364e-02 1.2608070956268708e-01 0.0000000000000000e+00  -3.8684086428856498e-02 1.2296602704679820e-01 0.0000000000000000e+00  -5.0043660246587941e-02 1.1882915464842193e-01 0.0000000000000000e+00  -6.0950788295869043e-02 1.1362423253752718e-01 0.0000000000000000e+00  -7.1308831524558539e-02 1.0741650870250238e-01 0.0000000000000000e+00  -8.1075933850378645e-02 1.0024780265710678e-01 0.0000000000000000e+00  -9.0102001204908300e-02 9.2214401298182327e-02 0.0000000000000000e+00  -9.8329531451937596e-02 8.3391022161613662e-02 0.0000000000000000e+00  -1.0571772710507481e-01 7.3792755853049369e-02 0.0000000000000000e+00  -1.1214614360567192e-01 6.3587343166512419e-02 0.0000000000000000e+00  -1.1761809835655698e-01 5.2782017076255801e-02 0.0000000000000000e+00  -1.2200068356528326e-01 4.1537931720643441e-02 0.0000000000000000e+00  -1.2539606085132662e-01 2.9911401048152916e-02 0.0000000000000000e+00  -1.2763723853519662e-01 1.8078956822365683e-02 0.0000000000000000e+00  6.7749772709149924e-06 1.5464650044958658e-01 0.0000000000000000e+00  1.4846497024627748e-02 -8.5675253821765551e-02 0.0000000000000000e+00  -1.7898883454858471e-02 -8.3386367883383120e-02 0.0000000000000000e+00  4.5172535761732656e-02 -6.9969784447218700e-02 0.0000000000000000e+00  -4.6356816236231731e-02 -7.0157958198778944e-02 0.0000000000000000e+00  4.5532566212016165e-02 -5.0129587812947990e-02 0.0000000000000000e+00  -4.4465396487961439e-02 -5.1312039489735409e-02 0.0000000000000000e+00  6.6600126602324755e-02 -5.7027975161363119e-02 0.0000000000000000e+00  -7.0217572437463738e-02 -5.5855813514386440e-02 0.0000000000000000e+00  9.6377305870559954e-02 -3.3687482428769899e-02 0.0000000000000000e+00  -9.9121856056103297e-02 -3.0405448840646550e-02 0.0000000000000000e+00  1.0577809018220288e-01 1.5379900503134248e-02 0.0000000000000000e+00  -1.0459252125801978e-01 2.2750749319917218e-02 0.0000000000000000e+00  4.5232556556071453e-03 1.0177611984502136e-01 0.0000000000000000e+00  6.6867922289095744e-02 7.8920281232299161e-02 0.0000000000000000e+00  -6.6049450812968119e-02 7.8934034828929592e-02 0.0000000000000000e+00  -4.2050492149428645e-02 6.8636990958680810e-02 0.0000000000000000e+00  4.3003351307733348e-02 6.7261638263183723e-02 0.0000000000000000e+00  3.6935998954579197e-03 1.4861001839888607e-01 0.0000000000000000e+00  -3.1295972803647688e-02 1.0381041380162143e-01 0.0000000000000000e+00  2.9753420160758992e-02 1.0489783044806421e-01 0.0000000000000000e+00  -4.2630001859514047e-03 1.4333825420336574e-01 0.0000000000000000e+00  4.9354167229653190e-02 -1.0091885376106477e-01 0.0000000000000000e+00  -5.3731926098112441e-02 -9.8540935298941798e-02 0.0000000000000000e+00  -3.3085949067624691e-03 -1.0979306432501733e-01 0.0000000000000000e+00  8.6081556196211953e-02 3.3745815168508338e-02 0.0000000000000000e+00  1.0015617342372735e-01 6.6022424134920252e-02 0.0000000000000000e+00  8.6470238107290043e-02 -6.4224171551096818e-02 0.0000000000000000e+00  8.3788433419610425e-02 -4.8571515699306435e-02 0.0000000000000000e+00  -3.8578695719292629e-03 -7.1906477548073153e-02 0.0000000000000000e+00  -8.0342306715245490e-02 -6.1732462580332700e-02 0.0000000000000000e+00  -9.2793615235098117e-02 -4.7477417600769463e-02 0.0000000000000000e+00  -1.4230415301483402e-02 -6.8466659202103430e-02 0.0000000000000000e+00  1.1162445229166845e-01 -2.6547988950146886e-02 0.0000000000000000e+00  1.1917609443780999e-01 1.4539629878579045e-02 0.0000000000000000e+00  -9.3405357034735209e-02 7.2238747194388081e-02 0.0000000000000000e+00  -1.1895460500173252e-01 1.9616806356914589e-02 0.0000000000000000e+00  3.7751649439556410e-02 1.1165222205863518e-01 0.0000000000000000e+00  -2.8941682951452958e-02 1.1422494204474448e-01 0.0000000000000000e+00  -1.1339345140084343e-01 -2.3170155319957978e-02 0.0000000000000000e+00  5.4606290802217570e-03 -5.8067850477556658e-02 0.0000000000000000e+00  1.1906018592945415e-05 -5.2604684081504996e-02 0.0000000000000000e+00  -4.2231460534459886e-03 -6.1074644303649464e-02 0.0000000000000000e+00  1.0349814106121976e-02 -6.1672510113174497e-02 0.0000000000000000e+00  -7.7449229142067212e-03 -6.0558408556539489e-02 0.0000000000000000e+00  -8.2435052375843490e-02 3.6627192920705348e-02 0.0000000000000000e+00  -3.0722411601896552e-02 8.0544714650121710e-02 0.0000000000000000e+00  -8.8240777556982258e-02 -2.4281901882211875e-02 0.0000000000000000e+00  8.0604484052976516e-02 -3.6200253034031092e-02 0.0000000000000000e+00  8.2527970241608212e-02 -8.4744288352789646e-02 0.0000000000000000e+00  5.8265302651968288e-03 3.5120387190026595e-02 0.0000000000000000e+00  4.8024977988488926e-02 -6.9244921207250149e-02 0.0000000000000000e+00  -5.3963548465174073e-02 4.6509796365194297e-02 0.0000000000000000e+00  -8.9188089021860614e-04 2.6158927313213860e-02 0.0000000000000000e+00  3.5857290640303088e-02 7.7136714635592199e-02 0.0000000000000000e+00  -1.0945090531395849e-01 -3.6671811248861277e-02 0.0000000000000000e+00  3.0761826701700207e-02 -1.1524507759619786e-01 0.0000000000000000e+00  -3.4623525031554955e-02 -1.1423997759306471e-01 0.0000000000000000e+00  -5.1754739742893081e-02 -6.7436583148961837e-02 0.0000000000000000e+00  5.5119252393214052e-02 4.8430376286770209e-02 0.0000000000000000e+00  8.0151851563954921e-02 9.3086201638095931e-02 0.0000000000000000e+00  -7.5850783431673507e-02 -9.1582757654567457e-02 0.0000000000000000e+00  1.9081860342365193e-03 9.9399838342116895e-02 0.0000000000000000e+00  -4.0562681325827854e-02 -7.2009897475114243e-02 0.0000000000000000e+00  3.9159902995881048e-02 -7.4436285632605043e-02 0.0000000000000000e+00  9.8263116223592600e-02 -5.6818529278695400e-02 0.0000000000000000e+00  -9.7078024568492752e-02 -5.6654220367316821e-02 0.0000000000000000e+00  -7.2918358902998012e-02 9.9397284656203774e-02 0.0000000000000000e+00  -3.8258984957826557e-03 1.4453433174148853e-01 0.0000000000000000e+00  1.1392253174334255e-01 -3.1993485116623394e-02 0.0000000000000000e+00  -1.2353731039615937e-02 -8.2640161609926530e-02 0.0000000000000000e+00  -1.2385060770452763e-01 8.5607606437816466e-03 0.0000000000000000e+00  1.1442706941620950e-02 -8.3658677491771832e-02 0.0000000000000000e+00  1.2305017230422366e-01 6.3757546882269780e-03 0.0000000000000000e+00  1.1618249177302502e-01 4.5458093799220660e-02 0.0000000000000000e+00  -1.1384095987357815e-01 5.1209914323404160e-02 0.0000000000000000e+00  8.4232816017572529e-02 -7.0724146802050164e-03 0.0000000000000000e+00  4.4137270330735110e-03 1.2302788474486966e-01 0.0000000000000000e+00  6.2056439283581594e-02 5.4544751156425472e-02 0.0000000000000000e+00  -6.4197405954051516e-03 -4.9065519976774483e-02 0.0000000000000000e+00  -5.7495633409755581e-02 5.6728571434060238e-02 0.0000000000000000e+00  1.7389799873556724e-02 -3.8077651581823815e-02 0.0000000000000000e+00  -3.2315775913027998e-02 -6.3573670053710354e-02 0.0000000000000000e+00  -8.4436053188271548e-02 1.0845904121041985e-03 0.0000000000000000e+00  2.5390334821694545e-03 8.2473137851501191e-02 0.0000000000000000e+00  3.4949395569622767e-02 -6.9921492380591616e-02 0.0000000000000000e+00  -5.3311080997364223e-02 1.0688652682088823e-01 0.0000000000000000e+00  5.8728684780323205e-02 1.0865847366922932e-01 0.0000000000000000e+00  6.4658528062443654e-02 -9.0255781411643810e-02 0.0000000000000000e+00  -1.7914487515031587e-02 -2.7635216263909693e-02 0.0000000000000000e+00  4.1512629429430174e-02 -1.0832247729728156e-02 0.0000000000000000e+00  -6.9253353219683927e-02 -5.1552424488083032e-02 0.0000000000000000e+00  -1.1086146701697822e-01 -3.1079577171437021e-02 0.0000000000000000e+00  -3.0770211947059055e-02 1.2305529846396961e-01 0.0000000000000000e+00  -2.2821910660935755e-02 1.4011675303161514e-01 0.0000000000000000e+00  -3.5765646983895033e-02 8.3783439769585646e-02 0.0000000000000000e+00  6.2144256612623239e-02 8.4125936879853161e-02 0.0000000000000000e+00  -4.2463046980891899e-04 1.3073047743953037e-01 0.0000000000000000e+00  2.3239083185140858e-02 1.3890207389029316e-01 0.0000000000000000e+00  3.0906713621025032e-02 1.2187092165335531e-01 0.0000000000000000e+00  -6.8546553523729958e-02 -5.3898711276291963e-02 0.0000000000000000e+00  3.6166703153784223e-02 -7.8877480249820039e-02 0.0000000000000000e+00  -4.8515698064222942e-02 1.0682424464199380e-01 0.0000000000000000e+00  4.8189536252397670e-02 6.6638935059536858e-02 0.0000000000000000e+00  1.6468115162207749e-04 1.7079200895960323e-01 0.0000000000000000e+00  8.6600761885187186e-02 6.4388622844898977e-02 0.0000000000000000e+00  -3.4184497526427049e-02 -7.8047802437838390e-02 0.0000000000000000e+00  -7.7023220210682183e-02 -7.3714634359731385e-02 0.0000000000000000e+00  1.0523776202219218e-01 -4.9948827905153183e-02 0.0000000000000000e+00  1.0654468284121213e-01 6.8903738904935147e-02 0.0000000000000000e+00  -8.9111276260932487e-02 -5.0510133809609038e-02 0.0000000000000000e+00  -4.3770575316461537e-02 9.3399372110414380e-02 0.0000000000000000e+00  -1.0562979790858990e-01 5.6969043389924659e-02 0.0000000000000000e+00  -6.1810776543731814e-02 5.7404018586771792e-02 0.0000000000000000e+00  1.3382065279090347e-02 -1.0804701698915756e-01 0.0000000000000000e+00  2.2850293306993659e-03 -8.4523305585087680e-02 0.0000000000000000e+00  -4.6985764642214871e-02 -5.9033920491945557e-02 0.0000000000000000e+00  5.1578648872142058e-02 -5.9621502622845435e-02 0.0000000000000000e+00  1.2566782354418343e-01 1.5453649454532736e-03 0.0000000000000000e+00  1.1534150806579714e-01 -3.9512926344560474e-02 0.0000000000000000e+00  -9.6537745798443597e-02 -7.7370229779640670e-02 0.0000000000000000e+00  8.3915941562292401e-02 -4.7715161175459035e-02 0.0000000000000000e+00  2.9743477730020292e-03 -1.2527806265117361e-01 0.0000000000000000e+00  -1.7925894940611316e-02 -1.2167113861660872e-01 0.0000000000000000e+00  -5.3176912273703927e-02 5.7731359691085206e-02 0.0000000000000000e+00  -4.9877862675595692e-02 1.0952068900194860e-02 0.0000000000000000e+00  8.8973933219859996e-02 -4.7005424764147034e-02 0.0000000000000000e+00  1.0424340942344217e-01 -8.6044017151331535e-03 0.0000000000000000e+00  6.3920945394377468e-02 -1.0745419964529006e-01 0.0000000000000000e+00  2.3730802766597451e-02 -7.7840173463638116e-03 0.0000000000000000e+00  2.8566875817733275e-02 8.9068186737805408e-02 0.0000000000000000e+00  -8.7635364098160015e-02 -4.4737551861811518e-02 0.0000000000000000e+00  3.2413268720970861e-02 -9.4502842006064500e-02 0.0000000000000000e+00  -2.0373932414827274e-02 9.8313934442727513e-02 0.0000000000000000e+00  5.5174400776803890e-02 -6.1217811205790791e-02 0.0000000000000000e+00  -6.4216908718250643e-03 -7.8475256983451674e-02 0.0000000000000000e+00  1.3108653593761833e-02 -5.6873972763417560e-02 0.0000000000000000e+00  -8.8791473297087489e-02 -8.7998966568784864e-02 0.0000000000000000e+00  -2.0058358545594245e-02 -1.0433837142450851e-01 0.0000000000000000e+00  7.0426130320805358e-02 -4.9807145625233987e-02 0.0000000000000000e+00  3.0136271093006092e-02 9.6967890531780412e-02 0.0000000000000000e+00  2.0385157557664596e-02 -7.7991108305391146e-02 0.0000000000000000e+00  -4.4255561859013560e-02 -5.1657669794245666e-02 0.0000000000000000e+00  3.7653468173629460e-02 1.0814401703618795e-01 0.0000000000000000e+00  -1.0535772359594298e-01 -1.3275190933204650e-02 0.0000000000000000e+00  -9.0538477722366173e-02 8.9951175546935339e-02 0.0000000000000000e+00  9.4018032612946667e-02 -8.2682253783619528e-02 0.0000000000000000e+00  7.6580912817322100e-02 -9.9854324938765601e-02 0.0000000000000000e+00  4.5288732468867783e-02 -6.0307582639519047e-02 0.0000000000000000e+00  -4.8187384907649615e-02 -1.1642730380857846e-01 0.0000000000000000e+00  -1.1848265447174551e-01 -3.5242320737804429e-02 0.0000000000000000e+00  -1.0067455434029449e-01 -6.6673254080548944e-02 0.0000000000000000e+00  -1.1241867611198196e-01 -4.7027095882528458e-02 0.0000000000000000e+00  3.5879263120634788e-02 -5.2381360610444343e-02 0.0000000000000000e+00  7.9847211085428929e-02 -8.4239386234572861e-02 0.0000000000