<?xml version="1.0"?>
<VTKFile type="UnstructuredGrid"  version="0.1"  >
<UnstructuredGrid>
<Piece  NumberOfPoints="1312" NumberOfCells="2508">
<Points>
<DataArray  type="Float64"  NumberOfComponents="3"  format="ascii">-1.002903299818989 0.2644758592035353 0  -1.001982960544643 0.1562180155799694 0  -0.989044156341606 0.04865525350416487 0  -0.9641518773432965 -0.05687728646852122 0  -0.927696569749378 -0.1590215973700538 0  -0.8802374776495236 -0.2566099194835639 0  -0.8225459923417782 -0.3485795020763537 0  -0.7547844199744771 -0.4333019998447132 0  -0.6783344227352047 -0.5099296277951233 0  -0.5948495864894341 -0.5777743386624203 0  -0.5055315625234693 -0.6362872354820495 0  -0.4103815813947399 -0.6841484901857903 0  -0.3109919711041946 -0.7219355224419371 0  -0.2084341910802346 -0.74916918221955 0  -0.104004363798596 -0.7656919350137357 0  0.0005967585162718308 -0.7717325114265268 0  0.1052177075043778 -0.7652615751849299 0  0.2093722963938234 -0.7478506105534182 0  0.3116959975582583 -0.719738432642268 0  0.4107809033070097 -0.681157494729794 0  0.5053717090289122 -0.6325055296341601 0  0.5947040217137648 -0.5739422217962197 0  0.6775791415781676 -0.5058653478587601 0  0.7531902163892018 -0.4286895292840401 0  0.8201161029265339 -0.3433825478484823 0  0.8774174902537049 -0.25121762117129 0  0.9243723943507882 -0.1534226795188446 0  0.9603465136404941 -0.0511068004693692 0  0.9848231375228856 0.05446426026571086 0  0.9974295276840976 0.1620818222884843 0  0.9979940259108754 0.2703575223821013 0  0.986560952170216 0.3780282170848049 0  0.9631844278090271 0.4836771450960394 0  0.9284750513224057 0.5861338348946764 0  0.8825664373223894 0.6841288682169696 0  0.8262712194028977 0.7764932904044732 0  0.7602022697909578 0.8621156558320859 0  0.6850663378382852 0.9400015289258143 0  0.6019214746729771 1.009302115438523 0  0.5117268431456672 1.069075426486649 0  0.4156086836577721 1.118952594887825 0  0.3147064949146231 1.158236775456144 0  0.2102198493198544 1.186780025959063 0  0.1032155622215068 1.203993168317869 0  -0.005011151846403691 1.20926871207678 0  -0.1131309361266982 1.202863922905517 0  -0.2199553226483987 1.185031901882704 0  -0.3242573583333481 1.155952618800778 0  -0.4248020628258158 1.115913280308972 0  -0.5205940626557891 1.065445275494715 0  -0.6103964619211266 1.005101174386584 0  -0.6931094743783766 0.9353933507146712 0  -0.7678381390868833 0.8572120848312986 0  -0.8335478980404841 0.7712602632357997 0  -0.8895250073180259 0.6786873190382706 0  -0.9349144742532208 0.5805333724670128 0  -0.9692247360953232 0.4779007973101005 0  -0.9920122011099834 0.3721331953559848 0  2.541244882482915 0 0  2.533411072607824 0.1993837755026232 0  2.509957941025437 0.3975382837274393 0  2.471030084090915 0.5932418362381817 0  2.416867504987088 0.785287855555587 0  2.347804134025016 0.9724923141087813 0  2.26426576985258 1.153701034158985 0  2.166767454264229 1.327796803689073 0  2.055910296797045 1.493706264387177 0  1.932377768690559 1.650406529257596 0  1.796931489059281 1.79693148905928 0  1.650406529257597 1.932377768690558 0  1.493706264387177 2.055910296797045 0  1.327796803689073 2.166767454264229 0  1.153701034158985 2.26426576985258 0  0.9724923141087815 2.347804134025016 0  0.7852878555555871 2.416867504987088 0  0.5932418362381819 2.471030084090915 0  0.3975382837274394 2.509957941025437 0  0.1993837755026233 2.533411072607824 0  1.556063705591147e-16 2.541244882482915 0  -0.199383775502623 2.533411072607824 0  -0.3975382837274385 2.509957941025437 0  -0.5932418362381816 2.471030084090916 0  -0.7852878555555868 2.416867504987089 0  -0.9724923141087811 2.347804134025016 0  -1.153701034158984 2.26426576985258 0  -1.327796803689073 2.166767454264229 0  -1.493706264387176 2.055910296797045 0  -1.650406529257596 1.932377768690559 0  -1.79693148905928 1.796931489059281 0  -1.932377768690559 1.650406529257597 0  -2.055910296797045 1.493706264387177 0  -2.166767454264229 1.327796803689073 0  -2.26426576985258 1.153701034158985 0  -2.347804134025016 0.9724923141087816 0  -2.416867504987088 0.7852878555555872 0  -2.471030084090915 0.5932418362381821 0  -2.509957941025436 0.3975382837274395 0  -2.533411072607824 0.1993837755026235 0  -2.541244882482915 3.112127411182294e-16 0  -2.533411072607824 -0.1993837755026217 0  -2.509957941025437 -0.3975382837274389 0  -2.471030084090916 -0.5932418362381815 0  -2.416867504987089 -0.7852878555555857 0  -2.347804134025016 -0.972492314108781 0  -2.26426576985258 -1.153701034158984 0  -2.166767454264229 -1.327796803689074 0  -2.055910296797045 -1.493706264387176 0  -1.93237776869056 -1.650406529257595 0  -1.796931489059281 -1.79693148905928 0  -1.650406529257598 -1.932377768690558 0  -1.493706264387177 -2.055910296797045 0  -1.327796803689073 -2.166767454264229 0  -1.153701034158985 -2.26426576985258 0  -0.9724923141087806 -2.347804134025016 0  -0.7852878555555873 -2.416867504987088 0  -0.5932418362381833 -2.471030084090915 0  -0.3975382837274397 -2.509957941025436 0  -0.1993837755026247 -2.533411072607824 0  -4.668191116773441e-16 -2.541244882482915 0  0.1993837755026238 -2.533411072607824 0  0.3975382837274388 -2.509957941025437 0  0.5932418362381825 -2.471030084090915 0  0.7852878555555866 -2.416867504987089 0  0.9724923141087798 -2.347804134025016 0  1.153701034158984 -2.26426576985258 0  1.327796803689072 -2.166767454264229 0  1.493706264387176 -2.055910296797045 0  1.650406529257597 -1.932377768690558 0  1.79693148905928 -1.796931489059281 0  1.932377768690559 -1.650406529257596 0  2.055910296797045 -1.493706264387177 0  2.166767454264228 -1.327796803689075 0  2.26426576985258 -1.153701034158985 0  2.347804134025015 -0.9724923141087829 0  2.416867504987088 -0.7852878555555876 0  2.471030084090916 -0.5932418362381813 0  2.509957941025436 -0.3975382837274398 0  2.533411072607824 -0.1993837755026227 0  -0.002584739814698145 0.2191237474730378 0  -0.1027236923946131 -1.652193759401201 0  0.8159096948343045 -1.456911592083033 0  -1.040111915280767 -1.319375674712008 0  1.444687709847688 -0.9022838872481002 0  -1.621919919370253 -0.5983578485680865 0  1.743137782652544 -0.1699408581690835 0  -1.766962851851498 0.2038474773774616 0  1.699030264069991 0.5910841902073825 0  -1.564690981250331 0.9313335349851638 0  1.376051988214535 1.217591900102657 0  -1.094118722450917 1.495143927211757 0  0.7761396219533478 1.696177703986159 0  -0.4517716392122046 1.814918615206955 0  0.1684984611006292 1.820846702534374 0  -0.6874622601047943 -1.812626050626551 0  0.386244480810905 -1.941782131996307 0  1.360276051198898 -1.471538341722645 0  -1.589100089756829 -1.167121581153179 0  0.4963328802823502 0.2715307103699309 0  -0.5039778949877347 0.2145845715205127 0  -0.5101238221976973 -1.313149096679227 0  0.2792080598813934 -0.1901008168989741 0  -0.2360929281563746 -0.2191445635304868 0  -0.2571573511480009 0.6449972432158191 0  1.914219091832179 -0.7061927064323762 0  0.2992705437008651 -1.284900182439172 0  -2.023041088539586 -0.2394426918224087 0  -1.134244921777309 -0.8000871364609221 0  2.038157949611782 0.2289486486480038 0  0.934779145468185 -0.9579384215408593 0  -0.2464608583635249 -2.082337278249237 0  0.8407695409719997 -1.911748937861082 0  -1.134797622387959 -1.759760008685357 0  1.803630340133301 1.041512790495224 0  -2.023751947919266 0.5707570787215333 0  1.330772005959684 -0.4288752311243174 0  -1.546310264569562 1.394274184534992 0  -1.438452845775812 -0.1509711143003411 0  0.2261967314512541 0.6733537052296223 0  1.716034995693821 -1.233406207001549 0  -1.921526007986063 -0.9009750396418073 0  1.241263457153295 1.663924200577946 0  -0.8936718863109001 1.897540919549118 0  1.459026655252006 0.1953833351511541 0  -0.1073652091264813 -1.243480291062369 0  -0.7534879648434616 -0.9730514511605691 0  -0.08414600234155951 2.141658772401251 0  -1.425706400118893 0.5008268541215857 0  2.107107121230523 -0.3492392212878864 0  0.5316039499360722 2.047468968665024 0  1.312469705893448 0.7883088597066037 0  -1.136579667477376 1.071019920161942 0  0.9447910973156248 1.292292962296276 0  -2.149766233839637 0.1293736768212834 0  -0.665509211030835 1.45664907504743 0  -1.379378761989467 -1.476802144599387 0  2.041520766514927 0.7489094643634358 0  -1.945789572939828 0.9440113231557822 0  -1.285358507294615 -0.4750649858997623 0  1.611159802658698 1.489340802119613 0  0.565859047891704 -1.021969434136268 0  0.4254581128667155 1.530110359807965 0  -1.378469847510672 1.705863468119049 0  -0.1394397056254731 1.588017437521083 0  1.202985714720871 -1.81256338537475 0  -0.6248244808010839 2.112405395765657 0  1.026670655069977 1.939181373510333 0  -1.955574045173572 -0.5676447181772588 0  1.214723330429024 -1.159069416428607 0  -0.6025315700119765 -2.136415795711069 0  0.2426761281735124 -1.626592354043797 0  1.041917894889136 -0.6254017305724607 0  -1.442114470750508 0.1751241096173953 0  -0.9387273786076411 -2.019713625993022 0  0.05475084362689719 -1.943903032854657 0  0.5983185778970785 -1.696902424483722 0  0.595055691980762 -0.05678005505271655 0  1.658177994785309 -0.4924618188972988 0  -0.5648553166440318 -0.122853636574383 0  0.03425466865839707 -0.4298976762194277 0  -1.280254306468077 0.7854727418350204 0  1.426309077529784 -0.1231991170638204 0  -0.5796225961733623 0.543939165416391 0  1.122462936612529 1.035801473548827 0  -0.3503444873438571 -1.03782331828309 0  0.2406340757775148 2.205078122869233 0  0.6278589700872709 -2.143969375703592 0  0.2222408912510111 -2.215306677116075 0  -0.02851135563529095 0.8812980076536692 0  1.293258947568627 0.4689849803471735 0  0.5431765766022822 0.6263500673776567 0  -0.8990759337846147 1.261429843396666 0  -0.8870753458319058 -1.582650816938822 0  -0.3766151322523224 -1.799757369485502 0  -1.728431603617971 0.5041286684652232 0  -1.747497366048448 1.170426948686684 0  -1.890371839064848 -1.202741249595626 0  1.65632110484937 -1.529006460161085 0  -1.688344739438366 -1.46018570517663 0  -1.715061667547733 -0.2988496999124455 0  -1.273054755
[...]
<PointData  Vectors="f_4031-0"> 
<DataArray  type="Float64"  Name="f_4031-0"  NumberOfComponents="3" format="ascii">-4.4417302172193145e-04 -7.7055962960881602e-02 0.0000000000000000e+00  1.7350511979418320e-02 -9.2482543984773957e-02 0.0000000000000000e+00  3.7546192054769480e-02 -9.9468844538298559e-02 0.0000000000000000e+00  5.7425362127282407e-02 -1.0387844591095349e-01 0.0000000000000000e+00  7.7923834687715202e-02 -1.0659608605965031e-01 0.0000000000000000e+00  1.0436894714538837e-01 -1.1289719815013276e-01 0.0000000000000000e+00  1.3320626903582608e-01 -1.1099853112699325e-01 0.0000000000000000e+00  1.5627581540539076e-01 -1.0776624790895377e-01 0.0000000000000000e+00  1.7353185521107892e-01 -9.8286611296219600e-02 0.0000000000000000e+00  1.8114873364351855e-01 -7.2575056144916231e-02 0.0000000000000000e+00  1.7745474714493509e-01 -3.6935458004022835e-02 0.0000000000000000e+00  1.5974844147855136e-01 -1.3205883636576109e-02 0.0000000000000000e+00  1.3288751209406341e-01 8.0459412899635662e-03 0.0000000000000000e+00  1.0390118182558422e-01 2.4157428182143118e-02 0.0000000000000000e+00  6.2933552020791539e-02 4.1444046911194250e-02 0.0000000000000000e+00  3.6883670731074369e-03 5.9179151310651976e-02 0.0000000000000000e+00  -5.6510783888369019e-02 4.7940725947865102e-02 0.0000000000000000e+00  -9.7469491408878381e-02 2.7769822571269961e-02 0.0000000000000000e+00  -1.2749927899999480e-01 7.3942561447383707e-03 0.0000000000000000e+00  -1.4681814622792733e-01 -1.0914171446973585e-02 0.0000000000000000e+00  -1.7005013152908488e-01 -3.8359629977129793e-02 0.0000000000000000e+00  -1.8091884572101755e-01 -6.6626275676008678e-02 0.0000000000000000e+00  -1.7764737269320363e-01 -9.0575075253078882e-02 0.0000000000000000e+00  -1.6136476525870355e-01 -1.0814587767466741e-01 0.0000000000000000e+00  -1.3636476510063486e-01 -1.1900592089474402e-01 0.0000000000000000e+00  -1.0797144486495035e-01 -1.2027171457595055e-01 0.0000000000000000e+00  -8.1933923579386905e-02 -1.1608932362792124e-01 0.0000000000000000e+00  -5.9338698026728996e-02 -1.0879677323053606e-01 0.0000000000000000e+00  -3.9841087658228143e-02 -1.0142156251192407e-01 0.0000000000000000e+00  -2.0753743250608893e-02 -9.2476687026930751e-02 0.0000000000000000e+00  -3.1158290404771651e-03 -8.2702220008274638e-02 0.0000000000000000e+00  9.8969466910367940e-03 -7.1697511393399888e-02 0.0000000000000000e+00  2.1161781039035554e-02 -5.7945232960241545e-02 0.0000000000000000e+00  2.8421390915017414e-02 -4.7582755942620701e-02 0.0000000000000000e+00  3.5642822908028858e-02 -3.5963474117261522e-02 0.0000000000000000e+00  3.7701297917291730e-02 -2.2304698606725647e-02 0.0000000000000000e+00  3.8541998994648927e-02 -1.1389606544696168e-02 0.0000000000000000e+00  3.8507445161314505e-02 1.1515436358318981e-03 0.0000000000000000e+00  3.8011183195654795e-02 1.1733263773167513e-02 0.0000000000000000e+00  3.5265445644617116e-02 2.3103952034628519e-02 0.0000000000000000e+00  3.0591453336338191e-02 3.0863283266295519e-02 0.0000000000000000e+00  2.5303822861727953e-02 3.6205152642358483e-02 0.0000000000000000e+00  1.5875544953245391e-02 3.6930826982810631e-02 0.0000000000000000e+00  6.5712795855780619e-03 3.5142207771408328e-02 0.0000000000000000e+00  -1.3407257250578142e-03 3.9139629573974703e-02 0.0000000000000000e+00  -7.3822355247351546e-03 4.2656706171536156e-02 0.0000000000000000e+00  -1.6638566807275663e-02 4.1073045350750702e-02 0.0000000000000000e+00  -2.3972359098800307e-02 3.7080310312783145e-02 0.0000000000000000e+00  -3.0179863844595589e-02 3.2206347481163210e-02 0.0000000000000000e+00  -3.6277542826669645e-02 2.3833338941907735e-02 0.0000000000000000e+00  -3.7750249291683621e-02 1.4066940319861809e-02 0.0000000000000000e+00  -3.9365448378525313e-02 5.1778927387608866e-03 0.0000000000000000e+00  -4.0412020122815945e-02 -7.9728146441649991e-03 0.0000000000000000e+00  -3.9458905365495532e-02 -2.2202103491702346e-02 0.0000000000000000e+00  -3.4571165401152654e-02 -3.2219391652464943e-02 0.0000000000000000e+00  -2.8259218648817808e-02 -4.3274084869362663e-02 0.0000000000000000e+00  -2.0051228275895887e-02 -5.2777056008911728e-02 0.0000000000000000e+00  -1.1498875619946308e-02 -6.4354853006907908e-02 0.0000000000000000e+00  1.3769359289406316e-01 -1.0777505169748669e-03 0.0000000000000000e+00  1.3718444664899526e-01 1.1876095573710041e-02 0.0000000000000000e+00  1.3617020111066699e-01 2.0462914791640894e-02 0.0000000000000000e+00  1.3379383886288004e-01 3.2105682118944795e-02 0.0000000000000000e+00  1.3086184302965459e-01 4.2528454300517958e-02 0.0000000000000000e+00  1.2687276733474720e-01 5.3537679840707453e-02 0.0000000000000000e+00  1.2277684873642264e-01 6.2425243620792444e-02 0.0000000000000000e+00  1.1744208250588285e-01 7.1979647414397441e-02 0.0000000000000000e+00  1.1143837145943285e-01 8.0959254015641885e-02 0.0000000000000000e+00  1.0475333520654258e-01 8.9445935856787465e-02 0.0000000000000000e+00  9.7318213709098142e-02 9.7473466242746179e-02 0.0000000000000000e+00  9.0137991738889700e-02 1.0411668055695386e-01 0.0000000000000000e+00  8.0210864876243390e-02 1.1194012828346502e-01 0.0000000000000000e+00  7.2083745297310167e-02 1.1738187993545342e-01 0.0000000000000000e+00  6.2419665118845766e-02 1.2278906246136931e-01 0.0000000000000000e+00  5.3566586423251447e-02 1.2687188791933340e-01 0.0000000000000000e+00  4.2557693373179328e-02 1.3089944526826941e-01 0.0000000000000000e+00  3.2106481680234618e-02 1.3380915090295251e-01 0.0000000000000000e+00  2.0461929491230699e-02 1.3618314184509878e-01 0.0000000000000000e+00  1.1883454003719478e-02 1.3719887656879384e-01 0.0000000000000000e+00  -1.0816340467939424e-03 1.3770793428115255e-01 0.0000000000000000e+00  -9.7176213453426339e-03 1.3736959940680796e-01 0.0000000000000000e+00  -2.1534881588497441e-02 1.3594773577470701e-01 0.0000000000000000e+00  -3.3205109550457336e-02 1.3364818477874083e-01 0.0000000000000000e+00  -4.1526078895150205e-02 1.3130109401502388e-01 0.0000000000000000e+00  -5.2672800953217386e-02 1.2713552049505450e-01 0.0000000000000000e+00  -6.3483287064251367e-02 1.2220529576402475e-01 0.0000000000000000e+00  -7.1028624578287416e-02 1.1797903630812176e-01 0.0000000000000000e+00  -8.0887659262001768e-02 1.1132979938985595e-01 0.0000000000000000e+00  -9.0254851697824351e-02 1.0400951260997299e-01 0.0000000000000000e+00  -9.6612489244727887e-02 9.8127864262156250e-02 0.0000000000000000e+00  -1.0530675510657145e-01 8.8739143823517067e-02 0.0000000000000000e+00  -1.1136308671347765e-01 8.1066920526129932e-02 0.0000000000000000e+00  -1.1751627987180388e-01 7.1847191765125384e-02 0.0000000000000000e+00  -1.2227130470039360e-01 6.3348345858437696e-02 0.0000000000000000e+00  -1.2711970448375873e-01 5.2671273787088566e-02 0.0000000000000000e+00  -1.3086926606843163e-01 4.2503197807235660e-02 0.0000000000000000e+00  -1.3411300433677559e-01 3.1258344218281511e-02 0.0000000000000000e+00  -1.3603236260248958e-01 2.1540454425885924e-02 0.0000000000000000e+00  -1.3720719713000645e-01 1.1699690745046403e-02 0.0000000000000000e+00  -1.3769849454300473e-01 -9.2470240678912247e-04 0.0000000000000000e+00  -1.3731726847851944e-01 -1.0694334199615308e-02 0.0000000000000000e+00  -1.3604109032716219e-01 -2.1562984715482632e-02 0.0000000000000000e+00  -1.3392905884544457e-01 -3.2152803510006454e-02 0.0000000000000000e+00  -1.3099573370898351e-01 -4.2564320045352703e-02 0.0000000000000000e+00  -1.2725153856981308e-01 -5.2708843235650060e-02 0.0000000000000000e+00  -1.2272943235195596e-01 -6.2532088561698423e-02 0.0000000000000000e+00  -1.1743954503634631e-01 -7.1971361260071073e-02 0.0000000000000000e+00  -1.1144286330346437e-01 -8.0951314838612592e-02 0.0000000000000000e+00  -1.0465959735575797e-01 -8.9538287181264886e-02 0.0000000000000000e+00  -9.8026051796264502e-02 -9.6721961022808528e-02 0.0000000000000000e+00  -8.8616774538627416e-02 -1.0539821076008406e-01 0.0000000000000000e+00  -8.1809710480618220e-02 -1.1076942983770806e-01 0.0000000000000000e+00  -7.1903814066046678e-02 -1.1732886989776896e-01 0.0000000000000000e+00  -6.1545378980638520e-02 -1.2318696337435828e-01 0.0000000000000000e+00  -5.3697016373331512e-02 -1.2680598104596236e-01 0.0000000000000000e+00  -4.1523706902116438e-02 -1.3130043987318521e-01 0.0000000000000000e+00  -3.3198050809676409e-02 -1.3362852086106744e-01 0.0000000000000000e+00  -2.1536236229400565e-02 -1.3591022246135817e-01 0.0000000000000000e+00  -1.0777269710534984e-02 -1.3721575024568572e-01 0.0000000000000000e+00  9.3274421043779306e-04 -1.3770667629484157e-01 0.0000000000000000e+00  1.0689771097502470e-02 -1.3732508944354729e-01 0.0000000000000000e+00  2.1545811552131918e-02 -1.3605506237057752e-01 0.0000000000000000e+00  3.2269729172345628e-02 -1.3390368743215161e-01 0.0000000000000000e+00  4.1681198409095524e-02 -1.3125355779799383e-01 0.0000000000000000e+00  5.3530605253512803e-02 -1.2688457893777977e-01 0.0000000000000000e+00  6.2529498789263796e-02 -1.2272341993951033e-01 0.0000000000000000e+00  7.1186690413683751e-02 -1.1788705581422489e-01 0.0000000000000000e+00  8.1684440128427127e-02 -1.1087941087777800e-01 0.0000000000000000e+00  8.9357030185620329e-02 -1.0482094515852623e-01 0.0000000000000000e+00  9.7488942686139266e-02 -9.7301684379993245e-02 0.0000000000000000e+00  1.0410485601710737e-01 -9.0144257674577483e-02 0.0000000000000000e+00  1.1131694586278368e-01 -8.0881711439751369e-02 0.0000000000000000e+00  1.1789818470380670e-01 -7.1154230481326214e-02 0.0000000000000000e+00  1.2266160064988703e-01 -6.2646950408044799e-02 0.0000000000000000e+00  1.2730117854010004e-01 -5.2591606561020257e-02 0.0000000000000000e+00  1.3067414210270670e-01 -4.3433991445923296e-02 0.0000000000000000e+00  1.3378681915161181e-01 -3.2130394988983152e-02 0.0000000000000000e+00  1.3590139312023980e-01 -2.1511580003630845e-02 0.0000000000000000e+00  1.3735384006916271e-01 -9.7174198616554134e-03 0.0000000000000000e+00  -3.7020273828103096e-03 7.1121493058479618e-02 0.0000000000000000e+00  2.9525039048024834e-03 -4.4536494531265576e-02 0.0000000000000000e+00  3.3277555182565804e-03 -6.6279694786528426e-02 0.0000000000000000e+00  -1.4027526053659322e-02 -6.5950106952896548e-02 0.0000000000000000e+00  3.1482717963764055e-02 -5.4966167241533102e-02 0.0000000000000000e+00  -3.7228838045704045e-02 -5.2958744040075695e-02 0.0000000000000000e+00  5.1874965969638830e-02 -4.8032367100863567e-02 0.0000000000000000e+00  -6.8585926912730202e-02 -4.1021499501976852e-02 0.0000000000000000e+00  8.1294987418596171e-02 -2.3195932280430768e-02 0.0000000000000000e+00  -8.9804671049400056e-02 -1.9155568181684144e-03 0.0000000000000000e+00  8.8772044995096028e-02 2.0422823745422029e-02 0.0000000000000000e+00  -7.9652723408524292e-02 4.9061891380971431e-02 0.0000000000000000e+00  6.1947115933830350e-02 7.0640815257598841e-02 0.0000000000000000e+00  -3.5268075052891069e-02 8.6516995242336109e-02 0.0000000000000000e+00  1.5234631739560727e-02 8.6671258506971105e-02 0.0000000000000000e+00  -2.3287889685101166e-02 -9.0706150781541081e-02 0.0000000000000000e+00  1.2233849711912104e-02 -9.5759871053090098e-02 0.0000000000000000e+00  6.3556989407126022e-02 -8.1225291655212570e-02 0.0000000000000000e+00  -7.0255772947954417e-02 -6.6016116104254285e-02 0.0000000000000000e+00  1.2526690938285902e-02 2.2517348096288872e-02 0.0000000000000000e+00  -1.2642653069298154e-02 1.9834940714383808e-02 0.0000000000000000e+00  3.8628704503679306e-02 -3.9283698322994311e-02 0.0000000000000000e+00  -6.0646166877783389e-02 7.4525293280283483e-02 0.0000000000000000e+00  5.4588141376591542e-02 7.8746985552195017e-02 0.0000000000000000e+00  -1.9239271301908618e-02 5.2895125819188302e-02 0.0000000000000000e+00  9.0745910188838957e-02 -4.9406892233936607e-02 0.0000000000000000e+00  -4.1249404321919557e-02 -1.0264861013454097e-02 0.0000000000000000e+00  -9.7232927406054936e-02 -3.8149940281617382e-02 0.0000000000000000e+00  3.5784448037489307e-02 -5.6343321466897349e-02 0.0000000000000000e+00  1.0623357425657737e-01 -1.9077297921913046e-02 0.0000000000000000e+00  -4.1345118738614295e-02 -6.0655957292089502e-02 0.0000000000000000e+00  -1.0675930725739019e-02 -1.1028535912161086e-01 0.0000000000000000e+00  3.8596477586602083e-02 -1.0509932863886567e-01 0.0000000000000000e+00  -5.6544439823447430e-02 -9.7747346459115758e-02 0.0000000000000000e+00  1.1163919094569286e-01 2.5405322570581299e-02 0.0000000000000000e+00  -1.1544727046311030e-01 -1.0955657844524784e-03 0.0000000000000000e+00  -2.9564925830948708e-02 -6.3655209901063825e-02 0.0000000000000000e+00  -1.0411341364812365e-01 5.0350009871233378e-02 0.0000000000000000e+00  4.4682152218642451e-03 -6.8492106307173728e-02 0.0000000000000000e+00  1.4595936326691327e-02 5.4252031072626640e-02 0.0000000000000000e+00  8.9331306741925909e-02 -7.0256270215308420e-02 0.0000000000000000e+00  -9.7646683380874635e-02 -5.6974153384697357e-02 0.0000000000000000e+00  8.9510263764919745e-02 7.1992585048803182e-02 0.0000000000000000e+00  -6.6566973430751381e-02 9.6093349193122346e-02 0.0000000000000000e+00  2.0604422281656702e-02 -6.4001723397840729e-02 0.0000000000000000e+00  2.4916703661238639e-02 1.3001969285859470e-02 0.0000000000000000e+00  7.0458457646560890e-02 -6.1008168082434332e-02 0.0000000000000000e+00  -5.1830507064697167e-03 1.1968373653599813e-01 0.0000000000000000e+00  -4.4992164700190462e-02 -4.9600851987030993e-02 0.0000000000000000e+00  1.0908272365647551e-01 -3.5711003881337626e-02 0.0000000000000000e+00  4.1866411654288276e-02 1.1019237224119334e-01 0.0000000000000000e+00  5.8088019585693547e-02 -3.1381307625759573e-02 0.0000000000000000e+00  -6.6360232333039115e-02 -3.1183537713266843e-03 0.0000000000000000e+00  6.5693075438883586e-02 2.0208005330194651e-02 0.0000000000000000e+00  -1.1716694466330675e-01 -1.8102121755516218e-02 0.0000000000000000e+00  -5.1367327017743609e-02 4.5943112720958218e-02 0.0000000000000000e+00  -6.5398993732130054e-02 -8.1236507915899828e-02 0.0000000000000000e+00  1.2092832176778461e-01 1.5387446448520395e-02 0.0000000000000000e+00  -1.1931595218513802e-01 2.4817135040794788e-02 0.0000000000000000e+00  3.9237667560085933e-02 -6.4910408828796201e-02 0.0000000000000000e+00  1.0707979613043439e-01 6.3913294825465150e-02 0.0000000000000000e+00  -8.0378388234421713e-02 -5.3824165547011318e-02 0.0000000000000000e+00  3.5139843442273215e-02 5.4781639236291438e-02 0.0000000000000000e+00  -9.5191789482052216e-02 8.1030601354996915e-02 0.0000000000000000e+00  -9.5660066430602458e-03 6.2535794747468704e-02 0.0000000000000000e+00  6.3727546980908586e-02 -1.0311254971038476e-01 0.0000000000000000e+00  -4.4969595342189167e-02 1.1686974060921546e-01 0.0000000000000000e+00  7.4497614916765889e-02 1.0015806927038449e-01 0.0000000000000000e+00  -9.1452748940846110e-02 -4.7436863625908543e-02 0.0000000000000000e+00  2.2366409211332563e-02 -6.2613475794295506e-02 0.0000000000000000e+00  -3.0980986297879969e-02 -1.2018879671211168e-01 0.0000000000000000e+00  -6.2615222223361636e-03 -4.5037032807946839e-02 0.0000000000000000e+00  -7.8364345343454725e-02 -6.7924864076952293e-02 0.0000000000000000e+00  -1.7722086431571603e-02 -6.5686327641102216e-02 0.0000000000000000e+00  -5.0235547449161484e-02 -1.1470247839074409e-01 0.0000000000000000e+00  1.1606476797381060e-03 -9.0288340097270367e-02 0.0000000000000000e+00  8.5553561788866139e-03 -7.4595820142508276e-02 0.0000000000000000e+00  -3.1110857514243650e-02 -1.6919747273443475e-02 0.0000000000000000e+00  4.0440614104519053e-02 -5.0532883639630446e-02 0.0000000000000000e+00  4.0778910229429047e-02 -1.2017641472810635e-02 0.0000000000000000e+00  -2.3703835015416747e-02 9.2453328512218755e-02 0.0000000000000000e+00  -5.6849088971244549e-02 -3.0850050989898209e-02 0.0000000000000000e+00  -7.1630199830406346e-03 -6.8880902308590924e-02 0.0000000000000000e+00  -3.0504883004093462e-02 1.2640390312515718e-02 0.0000000000000000e+00  6.2672216854334009e-02 -9.9648080460520531e-03 0.0000000000000000e+00  8.6415142068531001e-02 -2.8050586849168203e-02 0.0000000000000000e+00  1.8727302606549995e-02 1.2460167101649088e-01 0.0000000000000000e+00  3.1883264736842200e-02 -1.2115528454663671e-01 0.0000000000000000e+00  1.0653108123084086e-02 -1.2360704452552292e-01 0.0000000000000000e+00  -3.3645724383450271e-03 5.2887497759506359e-02 0.0000000000000000e+00  2.8927071355491971e-02 -6.1585054831298724e-02 0.0000000000000000e+00  3.0435935367325119e-02 1.7051127696476553e-02 0.0000000000000000e+00  -6.1612901063907835e-02 1.8839925416994203e-02 0.0000000000000000e+00  -2.2359400431621837e-02 -7.7176544084618492e-02 0.0000000000000000e+00  -6.0662810726537474e-03 -7.6981572753230046e-02 0.0000000000000000e+00  -8.0334901341980750e-02 -2.8221824596617137e-02 0.0000000000000000e+00  -1.1184135336135015e-01 3.5179338256003743e-02 0.0000000000000000e+00  -1.0401160497317605e-01 -6.9720463377417094e-02 0.0000000000000000e+00  9.3011831438048448e-02 -8.6886914503465376e-02 0.0000000000000000e+00  -9.3680361802706377e-02 -8.2937208113827279e-02 0.0000000000000000e+00  -4.6350446444378621e-02 -5.1784647617936157e-02 0.0000000000000000e+00  -2.1870984194202192e-02 -5.9680272719206513e-02 0.0000000000000000e+00  -2.1429593865580594e-02 -5.4327316396722260e-02 0.0000000000000000e+00  1.2194409816216453e-01 -1.9886331448266001e-02 0.0000000000000000e+00  6.2428120469803790e-02 -4.2849512014976228e-02 0.0000000000000000e+00  4.8821750249938685e-02 3.0252430885258332e-02 0.0000000000000000e+00  -1.2206098707815914e-01 -3.6163762113174895e-02 0.0000000000000000e+00  1.0704506493200054e-01 -6.0735165339834959e-02 0.0000000000000000e+00  1.0950094188799022e-02 5.2692034689054916e-02 0.0000000000000000e+00  1.2851650721249644e-01 6.3184109658467802e-03 0.0000000000000000e+00  -1.2559052519381525e-02 9.2469557502141336e-02 0.0000000000000000e+00  -3.9060093897516836e-02 2.6608979471887752e-02 0.0000000000000000e+00  8.7894116373904457e-02 2.3361902429235742e-04 0.0000000000000000e+00  9.9843773720815057e-02 -7.5718777162251102e-02 0.0000000000000000e+00  2.8830544525748496e-02 -7.2736994166908833e-02 0.0000000000000000e+00  -3.5999995493800764e-02 -4.4734223632635121e-02 0.0000000000000000e+00  -7.9675194861349150e-02 -1.0012827907635811e-01 0.0000000000000000e+00  -3.1605415484691333e-02 5.8101007285204932e-02 0.0000000000000000e+00  -2.5903451853739601e-02 1.1403882583092777e-01 0.0000000000000000e+00  7.2741846516563471e-02 -5.5669431550802430e-02 0.0000000000000000e+00  1.2051246119642058e-01 -4.2011698282198133e-02 0.0000000000000000e+00  8.2125165678220896e-02 -9.8504288837295881e-02 0.0000000000000000e+00  5.7470048147711034e-02 1.1627478440844725e-01 0.0000000000000000e+00  2.0765336083672453e-02 -5.8685439634526874e-02 0.0000000000000000e+00  2.1849218215031451e-02 -2.4200873497449357e-02 0.0000000000000000e+00  2.1006440779407637e-03 -6.1919373336241937e-02 0.0000000000000000e+00  2.5978274311650479e-02 -5.6743409238161853e-02 0.0000000000000000e+00  4.3483264914754086e-02 8.1247790149184457e-02 0.0000000000000000e+00  3.6623937302580761e-02 -8.8268186986293587e-02 0.0000000000000000e+00  -8.6677189108455177e-02 2.8582180175608003e-02 0.0000000000000000e+00  -8.1783955703628744e-02 8.2218060128061016e-02 0.0000000000000000e+00  -4.9618252554552277e-03 -1.2944728759932525e-01 0.0000000000000000e+00  -1.1033911143195857e-01 -7.1665403661276245e-02 0.0000000000000000e+00  1.0495717203964267e-01 -1.0614205446900763e-02 0.0000000000000000e+00  -7.5799167282050240e-03 -5.5224318431181304e-03 0.0000000000000000e+00  1.1626306165818456e-01 5.6319065132628028e-02 0.0000000000000000e+00  -1.2857706481147835e-01 2.3175584350831721e-03 0.0000000000000000e+00  -1.0871189338379795e-02 8.3473885220359603e-02 0.0000000000000000e+00  -1.1430547542384190e-01 6.5283941290404879e-02 0.0000000000000000e+00  -1.6816621431550396e-02 -5.5833182724452229e-02 0.0000000000000000e+00  -2.6225194034703976e-02 -5.9839124649120279e-02 0.0000000000000000e+00  4.0501896257565118e-03 -4.0767888394133207e-02