<?xml version="1.0"?>
<VTKFile type="UnstructuredGrid"  version="0.1"  >
<UnstructuredGrid>
<Piece  NumberOfPoints="829" NumberOfCells="1578">
<Points>
<DataArray  type="Float64"  NumberOfComponents="3"  format="ascii">-0.9774845843160517 -0.04158399526255737 0  -0.9641016160692789 -0.1513044038637479 0  -0.9375003329208812 -0.2584831368251316 0  -0.8987552706617167 -0.3609481255142475 0  -0.8479676135720122 -0.458618674273689 0  -0.7875207469837934 -0.5476241099010426 0  -0.7207820943609249 -0.6257152904669874 0  -0.6497480461120945 -0.6929713206483693 0  -0.5748408431164509 -0.7509256443157372 0  -0.4964060275824253 -0.8003650744786499 0  -0.4133921509277956 -0.8422407087971864 0  -0.3281046691140059 -0.8759179897428029 0  -0.2395973850278228 -0.9019659058642093 0  -0.1493413916729195 -0.9195175471981393 0  -0.05848868795093549 -0.9289412016390507 0  0.03232878635265579 -0.9302540502362867 0  0.1238481153225967 -0.9231514664536133 0  0.2144951744487826 -0.9079073118447373 0  0.303343861827886 -0.8841966462121494 0  0.3899026990222783 -0.852737894771379 0  0.4730030463533585 -0.8135273352652825 0  0.5523973921292514 -0.766481450941469 0  0.6279479477660692 -0.7114065617542843 0  0.700039616469222 -0.6470554480779471 0  0.7682977598319778 -0.5720874756481521 0  0.8309155397538631 -0.4860475806776381 0  0.8848007853347192 -0.3906985494126891 0  0.9274996974953217 -0.2890116148866175 0  0.9575803220781405 -0.1833900375403711 0  0.9748646341516171 -0.07423757889958683 0  0.9789193745430135 0.03600979699057999 0  0.9698778852633551 0.1451333976558448 0  0.9482581919115122 0.2517960748067501 0  0.9136800274736594 0.3568870638776319 0  0.8679258959576018 0.4556142769021332 0  0.8105842044022116 0.5490649962148575 0  0.7434651126665915 0.6347312395702482 0  0.6665217954494539 0.7128835528200332 0  0.5809948056484494 0.7820045667366513 0  0.488573696333787 0.8409591627322339 0  0.3897939478313656 0.8895083535759853 0  0.2870051461408115 0.9265727871529336 0  0.1803851532038724 0.9521869228563807 0  0.07053672944625687 0.9660070463224258 0  -0.03868994101865372 0.9679487554773969 0  -0.1486473752339125 0.9574461848547787 0  -0.2560824521535772 0.935141207963111 0  -0.3602812206490177 0.9012296032667753 0  -0.46009638151535 0.8561155678879733 0  -0.5549370982396721 0.7998191337549475 0  -0.6423301598703306 0.7337090834305667 0  -0.7209926833697288 0.6591954005617253 0  -0.7914549795656379 0.5756074649652996 0  -0.8522801355173163 0.4838240603925155 0  -0.9020754056618797 0.3854961545190035 0  -0.9393976516745063 0.2835276444535583 0  -0.9651461096126014 0.1763515081781296 0  -0.9777895051934389 0.06778486501832934 0  2.070177325365164 0.0003897814265367978 0  2.060223217998458 0.2029096785348911 0  2.03047734252637 0.4034884747262418 0  1.980923795956368 0.6013204946275437 0  1.912631163371447 0.7921813647549111 0  1.825753935100019 0.9758875929098015 0  1.721310607114019 1.150139371620673 0  1.600292416800652 1.31331981700335 0  1.463854407897597 1.463853450798596 0  1.313327333873498 1.600287914166173 0  1.150144980572007 1.721311581798045 0  0.9758918907937351 1.825758306965935 0  0.7922326807524254 1.91262036790954 0  0.6009567806808915 1.981064157161113 0  0.4038274070864202 2.030435041164448 0  0.2033154719865644 2.060180659592294 0  -0.0004018924633848402 2.070188837823541 0  -0.2028606165073045 2.060242516819922 0  -0.4039336050514059 2.030415325302957 0  -0.6005584585114995 1.981163165574913 0  -0.7925986598514785 1.912450430384186 0  -0.9758449184061329 1.825778765287184 0  -1.150152074174922 1.721308003634146 0  -1.313324825011374 1.600290354124722 0  -1.463857584481057 1.463850479411529 0  -1.600290356526429 1.313321040503909 0  -1.721309603635494 1.15014392867303 0  -1.82577652109273 0.9758361121065346 0  -1.912443333149836 0.7925963265856101 0  -1.980991598287043 0.600922554066194 0  -2.030490186791411 0.4033994447418089 0  -2.060158588910055 0.203384710268428 0  -2.07012539172755 -9.715182459268782e-07 0  -2.060169541879004 -0.20331256916365 0  -2.030409018049985 -0.4038746105099755 0  -1.981149200349012 -0.6005638881730709 0  -1.912439692888948 -0.7925938808221508 0  -1.825769310802577 -0.9758379704832677 0  -1.721307772865922 -1.150140974930544 0  -1.600249847019273 -1.313355068426089 0  -1.464124464344303 -1.463553002599697 0  -1.313007097564439 -1.600522409524207 0  -1.150141038175071 -1.721303502545651 0  -0.976223708320783 -1.82556074953652 0  -0.7918512939613833 -1.912755802233159 0  -0.6010040482334811 -1.981041549947986 0  -0.4038213549684136 -2.030436716038866 0  -0.2033110095321929 -2.060178056892843 0  0.000472632273628523 -2.070182250958529 0  0.202446238457495 -2.060259355835405 0  0.4042679154913776 -2.030330955262486 0  0.6009008968672701 -1.981072612923966 0  0.7922388817280921 -1.912617291340751 0  0.9758877858156629 -1.8257548078176 0  1.150140908377011 -1.721309999934465 0  1.313324339210271 -1.600285777515851 0  1.463848388283778 -1.463855307996165 0  1.600314099074985 -1.313280790038028 0  1.721069748891822 -1.150457853765471 0  1.825920802047383 -0.9755220637825682 0  1.912587755303228 -0.7922732023469764 0  1.981054201338583 -0.6009493657815352 0  2.030421202446009 -0.4038257446726625 0  2.060168201501615 -0.2033117839147509 0  0.002115438676179136 0.06442743044357925 0  0.5225842502236394 1.426909549048774 0  -0.07591647025260027 1.518809236309462 0  -0.6625827993132944 1.369791492788665 0  -0.3386447992167607 -1.478957902101259 0  -1.145401048719814 1.006854818419931 0  1.039610764647175 1.115708981985081 0  0.2931920535148608 -1.487076297324601 0  -0.902248812361062 -1.22860740563276 0  0.8760967879236314 -1.243542513041274 0  1.392484391578359 0.6274243275842212 0  -1.448669953366118 0.4873888028805872 0  -1.521180272207899 -0.1045655767158886 0  1.298426667042263 -0.794782656204767 0  1.526547382067813 0.0462122163990932 0  -1.299207873670797 -0.7952946433715333 0  -0.4952796824857051 -0.0472400350989944 0  0.5030918283485449 -0.01246555564908798 0  -0.3114950074454706 0.4115559110964327 0  0.2923668771911335 0.4262521230396387 0  0.1972712460225287 -0.3694112133089683 0  1.373231887665858 -0.3740407026869654 0  -0.2330998354327441 -0.3905178772992837 0  -1.289685588376859 -0.4268173661104766 0  -1.669288924187688 -0.4159626724985286 0  0.2551752413345167 1.696099487360944 0  -0.4223358273052881 1.662799304950208 0  0.8928572902861006 1.465976973282334 0  -1.033893660644355 1.370161901904407 0  -0.7334028475028801 -1.551622182124602 0  1.390461483827661 1.00746037682458 0  -1.699759683239272 0.230762040427068 0  -1.483380104432776 0.865560996871677 0  1.247850509047278 -1.157987981302398 0  -1.27037239879071 -1.153188633162969 0  1.670174586630141 0.3962568183456354 0  -0.08462783161495151 -1.727146286415443 0  1.609344790849865 -0.6254193076903214 0  1.720453803120227 -0.2707681176758885 0  0.7404760449557314 -1.565961322212594 0  0.01207103673493806 0.641849357867238 0  -0.0211893168241719 -1.391921693525242 0  0.5101101582740212 -1.212896972112316 0  -0.6220136001876245 0.2415811270192115 0  0.518465816513387 -0.347492202001262 0  -0.7987121515014836 1.038960713955342 0  -0.5423941060666977 -1.191151438671644 0  0.9767709953713702 -0.9305576743893466 0  0.1968002469062162 1.292651965843228 0  0.6059777958398251 0.2835113853072649 0  1.286907145526125 0.2838250627049542 0  0.7069154898622613 1.08369931095687 0  -0.2658513746351817 1.25080109263628 0  -1.31149769888652 0.1564114673774124 0  1.017910615769634 0.7865625183647029 0  -0.9618470727405659 -0.8558418968241626 0  -1.149746029054984 0.6504783366464703 0  -1.611632521198972 -0.7682139990696655 0  -0.5508600135178442 -0.356095458413953 0  -0.01011223082841537 -0.5911997656426727 0  -0.007382783258904718 0.3489700832190131 0  0.2050786582668337 -1.770078586898333 0  0.4909027661286158 -1.715217171781992 0  -0.4386901021132336 -1.75138566136762 0  -0.5243892295190744 1.123627646811165 0  1.077617196942203 -1.450832304460047 0  0.5381922972044563 1.710760118915268 0  -0.1654732717609395 1.786252900559412 0  -0.8436697350217277 1.583590493222971 0  1.130469617389823 0.523978560695104 0  1.155725562627343 1.374540299731035 0  -0.7265352348141705 -0.9995659516482243 0  -0.2249872046465946 -1.21165070459623 0  -1.392115121737405 1.134643770091208 0  0.1870647227100499 -1.216978116248014 0  1.260675045481249 -0.1175905099555639 0  1.126305145550698 -0.5593537189295998 0  -1.004908348665202 -1.489210985800907 0  0.6955264127838839 -1.019773289356946 0  -1.072201146314188 -0.6163798790764876 0  1.595711076479221 0.82696616598137 0  -1.711364259212167 0.5945682533353749 0  -1.808166094757553 -0.102823790397242 0  1.56774508497004 -0.8883251951447039 0  -1.236442431291431 -0.171041310266944 0  1.798073477357416 -0.007533375391525598 0  0.4372406645889995 1.150419216083139 0  -0.2659683656243964 0.6650446756132058 0  -0.02557270402351607 -0.2039156701100348 0  -1.495596907581589 -1.00621795640895 0  -1.180260464617028 0.3815848473077562 0  -0.9560662436505278 0.8256432903868435 0  -0.7346299724745446 -0.003001482553924045 0  -0.2350532107517813 -0.05698099117468861 0  0.7220956961067226 -0.1531854934038979 0  -0.2222465536760927 0.188048010350998 0  0.2781659231135283 0.6719871653882226 0  -0.5513263541327479 0.4885124327891985 0  0.3732041762484249 -0.5510749404579949 0  0.2404008003351528 -0.09458817259899838 0  0.2761719592990764 0.165550889324673 0  0.5204553161177022 0.5234917110471704 0  -0.2216521945060905 -0.6404938406127838 0  -1.434399203567329 -0.6079909094222985 0  -0.4107094331449063 -0.5371741139330237 0  0.09231653631690945 1.862273351916677 0  -0.6330002887594481 1.753955186200408 0  -0.03592821351915921 1.29393791318906 0  0.7740165944105836 1.677395398280941 0  -1.259995554340405 1.374942934345246 0  1.389742202398596 1.244306778656946 0  -1.253935323471936 -1.380851666501296 0  1.731653447114991 0.6342657177473703 0  1.830296971493191 0.2296574918185801 0  0.5261988886391172 -1.45304700569055 0  1.147505332674712
[...]
<PointData  Vectors="f_1603-0"> 
<DataArray  type="Float64"  Name="f_1603-0"  NumberOfComponents="3" format="ascii">-1.1663157461715092e-02 -1.0392323405872814e-01 0.0000000000000000e+00  1.0910217098309574e-02 -1.1717287910846973e-01 0.0000000000000000e+00  3.6459772340415961e-02 -1.2703497188130769e-01 0.0000000000000000e+00  6.3122559687443958e-02 -1.3146013058454062e-01 0.0000000000000000e+00  9.1575188618272532e-02 -1.3234841269548636e-01 0.0000000000000000e+00  1.1613645966215540e-01 -1.2377389996383227e-01 0.0000000000000000e+00  1.3008895323316796e-01 -1.0368223198920794e-01 0.0000000000000000e+00  1.3305585730013078e-01 -7.7725387692931608e-02 0.0000000000000000e+00  1.2751895151849260e-01 -5.0957583593501908e-02 0.0000000000000000e+00  1.1688810474232542e-01 -2.6771356300839228e-02 0.0000000000000000e+00  1.0201626343152109e-01 -5.2558873192841363e-03 0.0000000000000000e+00  8.3700451152805277e-02 1.2378514101853307e-02 0.0000000000000000e+00  6.2436846350153577e-02 2.6278760291993393e-02 0.0000000000000000e+00  4.0101932583103489e-02 3.5989241819295394e-02 0.0000000000000000e+00  1.5816585620140943e-02 4.1067558366145035e-02 0.0000000000000000e+00  -9.2464473883249031e-03 4.1556167463001448e-02 0.0000000000000000e+00  -3.3629766764643972e-02 3.7761921077579683e-02 0.0000000000000000e+00  -5.6683269514133348e-02 2.9036065987665168e-02 0.0000000000000000e+00  -7.8024859934771582e-02 1.6398538733668640e-02 0.0000000000000000e+00  -9.7514249602005748e-02 -4.0562574575346376e-04 0.0000000000000000e+00  -1.1370640096254145e-01 -2.1155180691253900e-02 0.0000000000000000e+00  -1.2656292266726826e-01 -4.5410169848677504e-02 0.0000000000000000e+00  -1.3351456007848619e-01 -7.0963478187949749e-02 0.0000000000000000e+00  -1.3333691350425331e-01 -9.7786578256431125e-02 0.0000000000000000e+00  -1.2290597584669140e-01 -1.2025264656072047e-01 0.0000000000000000e+00  -1.0042046546269566e-01 -1.3223358212539774e-01 0.0000000000000000e+00  -7.2922968145383890e-02 -1.3477988562875948e-01 0.0000000000000000e+00  -4.4567212776280916e-02 -1.2981958881233685e-01 0.0000000000000000e+00  -1.8670528064751283e-02 -1.2159646448067575e-01 0.0000000000000000e+00  5.2066044255169577e-03 -1.0978090278932343e-01 0.0000000000000000e+00  2.5741676569308022e-02 -9.5043744169295410e-02 0.0000000000000000e+00  4.1961784246779106e-02 -7.9647109490275342e-02 0.0000000000000000e+00  5.5363198054010514e-02 -6.4607095270679551e-02 0.0000000000000000e+00  6.5090348005785406e-02 -4.5342405632377195e-02 0.0000000000000000e+00  7.2311191035944550e-02 -2.8923266858148351e-02 0.0000000000000000e+00  7.5111241122663680e-02 -1.0636310392038556e-02 0.0000000000000000e+00  7.5687425507549824e-02 5.2821824941285756e-03 0.0000000000000000e+00  7.2489794096209231e-02 2.1430901321588109e-02 0.0000000000000000e+00  6.6169468613869728e-02 3.6431146036127876e-02 0.0000000000000000e+00  5.8338353396540400e-02 4.8878179748524431e-02 0.0000000000000000e+00  4.7588276326029910e-02 5.9776680112796653e-02 0.0000000000000000e+00  3.6566928521775413e-02 6.7796031220656375e-02 0.0000000000000000e+00  2.3901477317116674e-02 7.3709318836412255e-02 0.0000000000000000e+00  8.5932220993231063e-03 7.7067175930983403e-02 0.0000000000000000e+00  -3.8978038257997732e-03 7.7498428288647739e-02 0.0000000000000000e+00  -1.9364391052171675e-02 7.5124822641442865e-02 0.0000000000000000e+00  -3.2578611215326521e-02 7.0082100520181378e-02 0.0000000000000000e+00  -4.4577326906071309e-02 6.2636466454046899e-02 0.0000000000000000e+00  -5.4987896033029462e-02 5.2894000829613069e-02 0.0000000000000000e+00  -6.4709685747248877e-02 4.0169160668544882e-02 0.0000000000000000e+00  -7.1141716418495121e-02 2.6119013885684439e-02 0.0000000000000000e+00  -7.3763470400685635e-02 1.1981049577236069e-02 0.0000000000000000e+00  -7.4746094904719049e-02 -4.4253724536499452e-03 0.0000000000000000e+00  -7.3083061885997835e-02 -2.2549943766560877e-02 0.0000000000000000e+00  -6.8039756615608932e-02 -4.1425953914140140e-02 0.0000000000000000e+00  -5.8561922719422253e-02 -5.7177946271699927e-02 0.0000000000000000e+00  -4.6376928614422171e-02 -7.5092910280693176e-02 0.0000000000000000e+00  -3.0619848539575313e-02 -9.0662016461234077e-02 0.0000000000000000e+00  1.1929864830541902e-01 1.0234088417339167e-03 0.0000000000000000e+00  1.1875761983764647e-01 1.1685235331668580e-02 0.0000000000000000e+00  1.1721029859280607e-01 2.2267711375362355e-02 0.0000000000000000e+00  1.1386629978089220e-01 3.5625888903504467e-02 0.0000000000000000e+00  1.1030869467545232e-01 4.5546377153628470e-02 0.0000000000000000e+00  1.0526261391023299e-01 5.6266816477849889e-02 0.0000000000000000e+00  9.9244759806375177e-02 6.6303610429849461e-02 0.0000000000000000e+00  9.2277441386435871e-02 7.5713996725898652e-02 0.0000000000000000e+00  8.4400933018611873e-02 8.4398099878340363e-02 0.0000000000000000e+00  7.5733747013311314e-02 9.2265477417510011e-02 0.0000000000000000e+00  6.6318858078227572e-02 9.9246753744465024e-02 0.0000000000000000e+00  5.6279270533850755e-02 1.0527304764869311e-01 0.0000000000000000e+00  4.5679125660761773e-02 1.1028110431990761e-01 0.0000000000000000e+00  3.4669826859999836e-02 1.1423077172336792e-01 0.0000000000000000e+00  2.3159912030314176e-02 1.1709447777131010e-01 0.0000000000000000e+00  1.2748318295496924e-02 1.1864906691910614e-01 0.0000000000000000e+00  -1.0525937180642896e-03 1.1932755747145780e-01 0.0000000000000000e+00  -1.1560286716384188e-02 1.1880697236155527e-01 0.0000000000000000e+00  -2.3431601457082309e-02 1.1704388631665645e-01 0.0000000000000000e+00  -3.3629203154539149e-02 1.1449281380273153e-01 0.0000000000000000e+00  -4.6638811779115330e-02 1.0983868601133312e-01 0.0000000000000000e+00  -5.6158795382000436e-02 1.0532495822176617e-01 0.0000000000000000e+00  -6.6335359366519270e-02 9.9238678466071817e-02 0.0000000000000000e+00  -7.5727721961029601e-02 9.2271116336181222e-02 0.0000000000000000e+00  -8.4409002315089507e-02 8.4390704983731149e-02 0.0000000000000000e+00  -9.2271856797056365e-02 7.5717375572021434e-02 0.0000000000000000e+00  -9.9243082915713959e-02 6.6314076668805857e-02 0.0000000000000000e+00  -1.0531979395252208e-01 5.6135511913359727e-02 0.0000000000000000e+00  -1.0982036707514739e-01 4.6633281859834487e-02 0.0000000000000000e+00  -1.1405313847814304e-01 3.4587725210189282e-02 0.0000000000000000e+00  -1.1724300329711645e-01 2.2039180399280073e-02 0.0000000000000000e+00  -1.1859191025185482e-01 1.2927935864822347e-02 0.0000000000000000e+00  -1.1917263065788448e-01 -3.3967525234840214e-06 0.0000000000000000e+00  -1.1862121129492575e-01 -1.2743241527677720e-02 0.0000000000000000e+00  -1.1702801767317225e-01 -2.3281151092269865e-02 0.0000000000000000e+00  -1.1445888834382699e-01 -3.3640373568382807e-02 0.0000000000000000e+00  -1.0981247427284958e-01 -4.6626123913850952e-02 0.0000000000000000e+00  -1.0530274222535188e-01 -5.6139964184088523e-02 0.0000000000000000e+00  -9.9238536686473214e-02 -6.6307878359545241e-02 0.0000000000000000e+00  -9.2168855610584272e-02 -7.5804976175261746e-02 0.0000000000000000e+00  -8.5112275689656985e-02 -8.3613356232070016e-02 0.0000000000000000e+00  -7.4895878081406103e-02 -9.2884613052123283e-02 0.0000000000000000e+00  -6.6309544392872344e-02 -9.9225542837259290e-02 0.0000000000000000e+00  -5.7152417550534788e-02 -1.0475771758093719e-01 0.0000000000000000e+00  -4.4683446839971386e-02 -1.1063873862083638e-01 0.0000000000000000e+00  -3.4791460187467080e-02 -1.1417332943543761e-01 0.0000000000000000e+00  -2.3146332844085384e-02 -1.1709889995439167e-01 0.0000000000000000e+00  -1.2736289324678390e-02 -1.1864329200430788e-01 0.0000000000000000e+00  1.2353662647943406e-03 -1.1931083167128602e-01 0.0000000000000000e+00  1.0473706927832775e-02 -1.1885550289511997e-01 0.0000000000000000e+00  2.4313117467667296e-02 -1.1682609761321086e-01 0.0000000000000000e+00  3.4528004796573461e-02 -1.1425243163701430e-01 0.0000000000000000e+00  4.5693810128591660e-02 -1.1027414767249169e-01 0.0000000000000000e+00  5.6270221948411095e-02 -1.0526407641147935e-01 0.0000000000000000e+00  6.6308665036057396e-02 -9.9243219903676752e-02 0.0000000000000000e+00  7.5726357931834590e-02 -9.2260531179336358e-02 0.0000000000000000e+00  8.4387429168041470e-02 -8.4402019100172684e-02 0.0000000000000000e+00  9.2333888050147014e-02 -7.5613392117999445e-02 0.0000000000000000e+00  9.8617759177875963e-02 -6.7140331217706947e-02 0.0000000000000000e+00  1.0570381837463121e-01 -5.5311851408619717e-02 0.0000000000000000e+00  1.1019809856482399e-01 -4.5783207858289113e-02 0.0000000000000000e+00  1.1420623901163150e-01 -3.4651464241750453e-02 0.0000000000000000e+00  1.1706017591986273e-01 -2.3154657025882413e-02 0.0000000000000000e+00  1.1861776218944892e-01 -1.2738989604298458e-02 0.0000000000000000e+00  2.8419192489051247e-04 1.6793605955800414e-01 0.0000000000000000e+00  5.7065990022895204e-02 7.7534857768760498e-02 0.0000000000000000e+00  -8.2409399375906484e-03 9.3509941514470563e-02 0.0000000000000000e+00  -7.0586635455543389e-02 6.8570584352473998e-02 0.0000000000000000e+00  -1.1817280631252113e-02 -8.1138199501288533e-02 0.0000000000000000e+00  -1.0351553240841001e-01 1.4784783809511351e-02 0.0000000000000000e+00  9.9600377866706474e-02 2.9632274398522875e-02 0.0000000000000000e+00  1.0445559365411444e-02 -8.0984166615739969e-02 0.0000000000000000e+00  -3.7290613822618515e-02 -7.2911626389386919e-02 0.0000000000000000e+00  3.5556695601903388e-02 -7.3280433189419167e-02 0.0000000000000000e+00  1.0274541962092752e-01 -2.8778046065199354e-02 0.0000000000000000e+00  -9.7845740103347983e-02 -4.1390260278832934e-02 0.0000000000000000e+00  -6.2355661540599024e-02 -6.9015167919298404e-02 0.0000000000000000e+00  3.7101231732660410e-02 -5.8733714047747548e-02 0.0000000000000000e+00  7.2966453769037654e-02 -6.5425948962142766e-02 0.0000000000000000e+00  -3.7866958008856817e-02 -5.8771884601869058e-02 0.0000000000000000e+00  -4.1061544551867758e-02 7.6781116512853187e-02 0.0000000000000000e+00  4.4721350753077448e-02 7.3429136120342645e-02 0.0000000000000000e+00  -4.1255387896239407e-02 1.0513961653619415e-01 0.0000000000000000e+00  3.9564139260295166e-02 1.0642950179197982e-01 0.0000000000000000e+00  -8.4829352327162565e-03 1.6364811309771446e-01 0.0000000000000000e+00  2.1975165092045119e-02 -7.6333921035230123e-02 0.0000000000000000e+00  1.1496631681360347e-02 1.5468991493627968e-01 0.0000000000000000e+00  -7.1620578687074318e-04 -8.1750892229969840e-02 0.0000000000000000e+00  -8.3814822035736064e-02 -5.3238029879197533e-02 0.0000000000000000e+00  2.5087588884862334e-02 1.0575928563932105e-01 0.0000000000000000e+00  -4.0809152265809244e-02 1.0136117284271624e-01 0.0000000000000000e+00  8.2247013693710389e-02 7.5663034869363516e-02 0.0000000000000000e+00  -9.2777439594443400e-02 6.3679345861100051e-02 0.0000000000000000e+00  -4.6274858370338415e-02 -9.4336905263813803e-02 0.0000000000000000e+00  1.1259847844883335e-01 2.3500765795669027e-02 0.0000000000000000e+00  -1.0503192906350442e-01 -3.6226559027970742e-02 0.0000000000000000e+00  -1.1520224958342588e-01 1.0228816975781058e-02 0.0000000000000000e+00  7.1706970882873200e-02 -6.7108055777160350e-02 0.0000000000000000e+00  -7.3913583912266489e-02 -6.6780929249292104e-02 0.0000000000000000e+00  1.0983120892121991e-01 -2.6470825801153484e-02 0.0000000000000000e+00  -4.7662581239357512e-03 -1.0485581568992550e-01 0.0000000000000000e+00  8.0543324840390312e-02 -5.4385418804276574e-02 0.0000000000000000e+00  9.1919043764834216e-02 -4.9949305809244227e-02 0.0000000000000000e+00  4.7631131872840043e-02 -9.4907213112896169e-02 0.0000000000000000e+00  2.6432753681064048e-03 1.0675354257978918e-01 0.0000000000000000e+00  -1.3748797386352644e-05 -6.0884725343848159e-02 0.0000000000000000e+00  -8.2463196472168914e-03 -5.9853018881526804e-02 0.0000000000000000e+00  -6.2335922140828774e-02 3.4641714775409657e-02 0.0000000000000000e+00  -1.5987903358725901e-02 5.1549962134373073e-02 0.0000000000000000e+00  -8.4825388411166436e-02 2.6106978156948762e-02 0.0000000000000000e+00  1.1230998199917866e-02 -6.1861371758453632e-02 0.0000000000000000e+00  -1.7304975427344248e-03 -6.8027476239304260e-02 0.0000000000000000e+00  2.4472584712037664e-02 7.6101635341959809e-02 0.0000000000000000e+00  6.3980794307487349e-02 3.8619213592076568e-02 0.0000000000000000e+00  6.5136911840319334e-02 -7.3707618746217216e-02 0.0000000000000000e+00  7.7182033489485255e-02 3.6859903404362487e-02 0.0000000000000000e+00  -3.2745655836206367e-02 7.0710254607815562e-02 0.0000000000000000e+00  -5.3299330550209280e-02 -8.1315499683445466e-02 0.0000000000000000e+00  9.1037194803586796e-02 -1.4187511110989415e-02 0.0000000000000000e+00  2.2493187475905521e-02 -7.2961246083807232e-02 0.0000000000000000e+00  -9.3150146056004718e-02 -3.3209587234063684e-02 0.0000000000000000e+00  -8.8375854621118174e-02 -5.3847175540246137e-02 0.0000000000000000e+00  1.9936981648010031e-02 3.1868024241959544e-02 0.0000000000000000e+00  7.4116812104871733e-04 1.4686777907873377e-01 0.0000000000000000e+00  -4.6363045642634689e-04 1.3807832317651847e-01 0.0000000000000000e+00  1.3233961088709504e-02 -1.0889351013063571e-01 0.0000000000000000e+00  3.2179599271013451e-02 -1.0563976712505858e-01 0.0000000000000000e+00  -2.8199346513536200e-02 -1.0818755109582341e-01 0.0000000000000000e+00  -6.0524021025244755e-02 5.2086487358384198e-02 0.0000000000000000e+00  7.0869103952808890e-02 -8.5897105187337078e-02 0.0000000000000000e+00  4.8112475408228675e-02 1.0321302385988419e-01 0.0000000000000000e+00  -1.4856561034205655e-02 1.1226525614300115e-01 0.0000000000000000e+00  -7.3494574379927041e-02 8.8578053032175155e-02 0.0000000000000000e+00  7.9663000589849889e-02 -5.0465889079852486e-02 0.0000000000000000e+00  9.6123304415090607e-02 6.5799212448764702e-02 0.0000000000000000e+00  3.6752432703611657e-02 -6.9861267330414381e-02 0.0000000000000000e+00  1.2048623699537051e-02 -3.8948943708272399e-02 0.0000000000000000e+00  -1.0958349899029453e-01 4.2019538091237395e-02 0.0000000000000000e+00  -1.1642288201229188e-02 -3.7693714772439116e-02 0.0000000000000000e+00  1.6130435023824091e-02 -9.7351826190776009e-02 0.0000000000000000e+00  -3.4600165659783258e-02 -8.8070272634543326e-02 0.0000000000000000e+00  -6.6408801900603179e-02 -8.8927875925497418e-02 0.0000000000000000e+00  -3.4937130021872320e-02 -6.7679178063692697e-02 0.0000000000000000e+00  4.4965589643412324e-02 -8.9529095209959594e-02 0.0000000000000000e+00  1.1679114239732330e-01 1.4498523417284290e-02 0.0000000000000000e+00  -1.1773813412680538e-01 -1.6508923477187199e-03 0.0000000000000000e+00  -1.0552205558288337e-01 -3.8296923586313696e-02 0.0000000000000000e+00  8.8933223620907415e-02 -5.6799060803721213e-02 0.0000000000000000e+00  -4.9422093932689950e-03 -1.0038855351041868e-01 0.0000000000000000e+00  1.0666669249808371e-01 -3.6115227389609962e-02 0.0000000000000000e+00  5.2280273875323038e-02 5.6994362847314947e-02 0.0000000000000000e+00  -3.5827658207438919e-02 9.0412214107226177e-02 0.0000000000000000e+00  -1.9282031974148241e-03 1.8456204525732761e-01 0.0000000000000000e+00  -8.7887605242789588e-02 -6.0177569345609791e-02 0.0000000000000000e+00  -6.8853002108541020e-02 -6.6541133558036356e-02 0.0000000000000000e+00  -8.9804684078701694e-02 -6.9351517229580238e-03 0.0000000000000000e+00  -3.9688463682074127e-02 -2.0979988473505087e-02 0.0000000000000000e+00  -2.3661662325508131e-02 1.5497081880628552e-01 0.0000000000000000e+00  1.6295147327298826e-02 -3.8238617758638627e-02 0.0000000000000000e+00  -2.9458905786943160e-02 1.3861194269582805e-01 0.0000000000000000e+00  3.7905019047559364e-02 8.9189448694037804e-02 0.0000000000000000e+00  -6.3860051492087483e-02 5.4021014412351534e-02 0.0000000000000000e+00  -6.4881229996663334e-02 8.7494485248744036e-02 0.0000000000000000e+00  2.1370415741280301e-02 1.5594588534188672e-01 0.0000000000000000e+00  3.6033210484096252e-02 1.3091351536805709e-01 0.0000000000000000e+00  6.1851297265201534e-02 5.6094386419075576e-02 0.0000000000000000e+00  4.9887111543268338e-02 1.1063571611870648e-01 0.0000000000000000e+00  -4.6080241515885252e-02 -6.0188801003947343e-02 0.0000000000000000e+00  6.6294836298743762e-02 7.4189279290602705e-02 0.0000000000000000e+00  7.7880598843489681e-03 1.1616063053876598e-01 0.0000000000000000e+00  -5.1773313354569403e-02 1.0494762196953866e-01 0.0000000000000000e+00  -3.3947671183361576e-03 7.8543920987862281e-02 0.0000000000000000e+00  6.4026435624056660e-02 9.7532424371979773e-02 0.0000000000000000e+00  -9.6797525649082006e-02 6.7973670044242956e-02 0.0000000000000000e+00  1.0473105126508858e-01 5.6103969680313108e-02 0.0000000000000000e+00  -8.1573260171550421e-02 -8.0311266226594805e-02 0.0000000000000000e+00  1.1817688788923103e-01 5.5610344695914147e-03 0.0000000000000000e+00  1.1498929555150164e-01 -1.9082199398433211e-02 0.0000000000000000e+00  2.3511914750327361e-02 -8.3008965252555994e-02 0.0000000000000000e+00  -2.8900724452253085e-02 -1.0750829305138315e-01 0.0000000000000000e+00  5.5925871412161626e-02 -7.0574207990233589e-02 0.0000000000000000e+00  2.9564435719311593e-02 -6.4415120205118234e-02 0.0000000000000000e+00  -4.7701426960666274e-02 8.0439558026556071e-02 0.0000000000000000e+00  5.1184550158017081e-02 -2.2667857392216183e-02 0.0000000000000000e+00  1.6912384923027087e-03 -1.7968949079955429e-02 0.0000000000000000e+00  3.9251169571703475e-03 -8.9472753164914320e-02 0.0000000000000000e+00  1.0448979795416651e-01 -4.3473917784071815e-02 0.0000000000000000e+00  1.0495894071497434e-01 5.3646587761163088e-03 0.0000000000000000e+00  9.1390223699492415e-02 -6.4664774858814153e-02 0.0000000000000000e+00  -3.6000340846490411e-02 1.3054607646240277e-01 0.0000000000000000e+00  -6.7273801504343339e-02 -9.3561089156253205e-02 0.0000000000000000e+00  -1.7148446006176866e-02 1.1824819941962954e-01 0.0000000000000000e+00  9.1021963588033730e-02 1.3606164206067346e-02 0.0000000000000000e+00  7.6702193119671372e-02 6.0316162963189313e-02 0.0000000000000000e+00  -3.4850539027708620e-02 -6.5272516721657944e-02 0.0000000000000000e+00  3.1324908617607898e-03 -4.7493761875332899e-02 0.0000000000000000e+00  3.0415788990157830e-02 -7.8432299332100774e-02 0.0000000000000000e+00  9.8664664657405685e-02 -2.3375784671682203e-02 0.0000000000000000e+00  -5.0809841667759814e-02 9.4626276723568714e-02 0.0000000000000000e+00  1.6783150692967975e-02 9.2028666044977545e-02 0.0000000000000000e+00  -9.5637226640275713e-02 3.4402313607364128e-02 0.0000000000000000e+00  -1.0292032734764879e-01 -4.7446442358259351e-02 0.0000000000000000e+00  4.7089074488389303e-02 -8.4715570528950734e-02 0.0000000000000000e+00  3.6361012975754919e-02 -1.1374009685028499e-01 0.0000000000000000e+00  -3.0020251382775011e-02 -9.4102027977158664e-02 0.0000000000000000e+00  -2.8670505243009899e-02 -7.7918977330475064e-02 0.0000000000000000e+00  -1.6997590128067980e-02 1.1743192437337546e-01 0.0000000000000000e+00  -1.7738519148465318e-02 -1.1470386936309968e-01 0.0000000000000000e+00  -4.1751450672615396e-02 -1.0854431748318248e-01 0.0000000000000000e+00  -1.0503254285018930e-01 -2.3777374694392884e-02 0.0000000000000000e+00  6.4335240950569819e-02 -9.6869200068202044e-02 0.0000000000000000e+00  8.2205290045817503e-02 -8.1429871643956347e-02 0.0000000000000000e+00  9.4154991949139261e-02 -4.6788050359793797e-02 0.0000000000000000e+00  -4.6462775193655367e-02 -6.9873824581818095e-02 0.0000000000000000e+00  -1.1685821971668396e-01 2.3522300899596268e-02 0.0000000000000000e+00  -1.1812113832751064e-01 -5.4446401830738310e-03 0.0000000000000000e+00  7.9483605230387513e-02 -6.2042894034431799e-02 0.0000000000000000e+00  -1.1457090619797367e-01 -2.2243620897943021e-02 0.0000000000000000e+00  -1.0946049414806214e-01 -3.5496630616554101e-02 0.0000000000000000e+00  -1.0516851148232018e-01 -7.7741966740251071e-03 0.0000000000000000e+00  -8.6259055235740970e-02 -5.6094306578131865e-02 0.0000000000000000e+00  -7.8355271900623705e-02 -6.1900449432048900e-02 0.0000000