<?xml version="1.0"?>
<VTKFile type="UnstructuredGrid"  version="0.1"  >
<UnstructuredGrid>
<Piece  NumberOfPoints="1127" NumberOfCells="2108">
<Points>
<DataArray  type="Float64"  NumberOfComponents="3"  format="ascii">-1.010308255376614 0.1115415403066606 0  -1.001630733121704 0.0001640831729639424 0  -0.9800300764548345 -0.1100286730190566 0  -0.9454067469632039 -0.2175600639441264 0  -0.8982820127755212 -0.3205271199561518 0  -0.8398569559007329 -0.4166874145946333 0  -0.7707983583962288 -0.5052546942150938 0  -0.6936184200333551 -0.5842476318416638 0  -0.6129137759277337 -0.6508364449857315 0  -0.530490149537388 -0.7058437148896443 0  -0.4441456969202839 -0.7520496469706348 0  -0.3552826213854423 -0.7892457557654505 0  -0.2636523069104283 -0.8177562486257214 0  -0.1695214411813709 -0.8377462714962859 0  -0.07484447798540626 -0.8488652192436924 0  0.01984145536105272 -0.8513079293140963 0  0.1139920369604386 -0.8449716557956838 0  0.2082893015222784 -0.8300116282309207 0  0.3009679823298002 -0.8064087600744138 0  0.3922164286134455 -0.7738216344031921 0  0.479863245870555 -0.7327697432238226 0  0.5643185089186433 -0.6828569125419193 0  0.6455052275950921 -0.6236931354742697 0  0.7245311148851613 -0.5522834141576183 0  0.7975680083502205 -0.4702825597169325 0  0.8620333151310158 -0.3794070736872713 0  0.9162504160830849 -0.2801109119259582 0  0.9588488213151412 -0.1745951604178453 0  0.9883725216587491 -0.06616898509377495 0  1.005248775629611 0.0450080291542922 0  1.00871539811085 0.1571563511412607 0  0.9993093375420123 0.2681639041235592 0  0.9774160906172645 0.377081776503726 0  0.9425357604951986 0.4834457159651891 0  0.8957327887148979 0.5851482173211815 0  0.8384415067280653 0.6795502280326998 0  0.7699778363446061 0.7681430101067049 0  0.6922066244486165 0.8482284013170107 0  0.6061598823384433 0.9189463575886683 0  0.5124094611401206 0.9801486379312879 0  0.4122309982249616 1.030643464023756 0  0.3081977835970982 1.069512314265442 0  0.1990679835205347 1.097386716720157 0  0.08843169933135994 1.113121291559557 0  -0.02327176438182831 1.116745801182498 0  -0.1344265152308657 1.108183428625318 0  -0.2451431295772407 1.087385686823184 0  -0.3523530985098178 1.054911682435833 0  -0.4544766531248204 1.011283832884861 0  -0.5523510663779093 0.9561980116110143 0  -0.6430187251199267 0.8910615483718848 0  -0.7253729048801268 0.8168094599793483 0  -0.7991353444153585 0.7336983957052052 0  -0.8636179311259422 0.6422327552610338 0  -0.9171182988761585 0.5442097869794997 0  -0.9590704971638646 0.4412298243612611 0  -0.9888381546791417 0.3339618627688682 0  -1.006286186970913 0.222665530334087 0  2.319282432651083 5.380853044267696e-06 0  2.310457149185574 0.2021357421079027 0  2.284051085140019 0.4027311031712918 0  2.240248510315092 0.6002682466298438 0  2.179415979250526 0.7932381420432718 0  2.101974633377235 0.9801658123160691 0  2.008558242886957 1.159646292037777 0  1.899840317702554 1.330282238431766 0  1.776675389438038 1.490810775853427 0  1.639981317527834 1.6399736960366 0  1.490807429123527 1.776667753430739 0  1.330295956841012 1.899846342153763 0  1.159640406338286 2.008551286956315 0  0.9801708824985671 2.101978167068431 0  0.7932408736574111 2.179408254383695 0  0.6002743211283167 2.240250984452088 0  0.402738609892148 2.284044859668402 0  0.2021449092345108 2.310466331004215 0  9.566861015821973e-08 2.319278816981962 0  -0.2021402894493375 2.310455097059255 0  -0.4027480143632959 2.284055594862205 0  -0.6002747542380953 2.240264525958005 0  -0.7932397001288647 2.179409115229079 0  -0.9801717922888077 2.101981000641281 0  -1.159645759615017 2.008564421762307 0  -1.330286277376453 1.899840309119909 0  -1.490803791165107 1.776668729435594 0  -1.639978431219065 1.639975258425737 0  -1.776680696775136 1.490806618545828 0  -1.899848377504085 1.330289719688493 0  -2.008552662355721 1.159636805854343 0  -2.10197672731265 0.9801633970726367 0  -2.17941779729995 0.7932338089470705 0  -2.240256803148999 0.600272902442966 0  -2.284048336328138 0.402741656506467 0  -2.310448225132659 0.2021390342589126 0  -2.319281218011057 -9.257344745173883e-08 0  -2.31045775616958 -0.2021381227526686 0  -2.284047560014002 -0.4027390656657469 0  -2.240242530125761 -0.600271499502552 0  -2.179411363080702 -0.7932442524491874 0  -2.101985329668117 -0.9801684915409452 0  -2.008561488417004 -1.15963631068612 0  -1.899839274866585 -1.330279460945142 0  -1.776675810163988 -1.490809278441553 0  -1.639975781690432 -1.639974301296338 0  -1.490805473377268 -1.77667912362519 0  -1.330282560112632 -1.899840412181561 0  -1.159641537955351 -2.008564750920095 0  -0.9801803304600982 -2.101986724382476 0  -0.7932396166401108 -2.179408679350476 0  -0.6002762012841069 -2.240262735044469 0  -0.4027375471117361 -2.284054342215242 0  -0.2021400340232735 -2.310464373000589 0  6.398990475926452e-07 -2.319278969090026 0  0.2021384871184518 -2.310466016162889 0  0.4027372698717349 -2.284045180975392 0  0.6002761009787059 -2.240261826778861 0  0.7932408588325864 -2.179407833594493 0  0.9801745371557736 -2.101990917512579 0  1.159640214565584 -2.008553008168778 0  1.330287083062437 -1.899851447828879 0  1.490808719642366 -1.776676853654637 0  1.639976229351935 -1.639973782234426 0  1.776676968344685 -1.490808928796173 0  1.899836845346983 -1.330280493648844 0  2.00854862219802 -1.159632841801829 0  2.101975870589094 -0.9801636246902217 0  2.17940105995595 -0.793236290304141 0  2.240242795583296 -0.6002715690457271 0  2.284035326206247 -0.4027372501840911 0  2.310444837155722 -0.2021379827579574 0  0.0009647142803985508 0.163199452169888 0  -0.06965184908203122 -1.597930978329421 0  0.6510904234800258 -1.46476904186918 0  -0.8642356692537665 -1.360174610355483 0  1.21562399891567 -1.069315750397218 0  -1.370508448565797 -0.8804953359283343 0  1.563673022850312 -0.5053220063222934 0  -1.639718812835376 -0.2316094207749352 0  1.660896548017214 0.1996604252551758 0  -1.626588532161226 0.4064669998009604 0  1.48149771600337 0.8136948098132287 0  -1.33058935964971 1.055468324170307 0  1.053050601306823 1.34739566815752 0  -0.8015213347023095 1.514851314593725 0  0.2279335124625962 1.703472622377562 0  -0.3137666379702182 1.757060306859355 0  -0.5103648593643032 0.06837218513631958 0  0.5165212874881863 0.1407886153675038 0  -0.3111000886228816 0.5378157685576657 0  0.2460311152590754 -0.2666754581902319 0  0.2566744698097019 0.5728543066608973 0  -0.5521061163380319 -1.745865097868423 0  0.6052750890183944 1.438233565489657 0  -0.23836998854116 -0.3003181877196444 0  0.4090236674494153 -1.840077560393355 0  1.155552928931695 -1.500859026491366 0  -0.4091909991167899 -1.306212257206679 0  -1.291037972496383 -1.404551994082079 0  -1.756122433155179 -0.6517081641387985 0  0.2504176229109811 -1.280537966181811 0  1.702321628111961 -0.8874205732775448 0  1.90210352793928 -0.2591231694218059 0  -1.702329411671567 0.8691274683522877 0  -1.922811241199719 0.0721175951202625 0  1.844751642772451 0.5669325328231776 0  0.7791522340959605 -1.068190644057527 0  0.8895367219331602 1.717180219348409 0  -0.9404106435071975 -0.9506707615385837 0  1.44008778894564 1.301767738670792 0  -1.191444130039581 1.534288821521686 0  -1.287582511757202 -0.4811354593694074 0  1.168971673299503 -0.6676516706337702 0  1.3984504280687 -0.1361779670140017 0  -0.2317255653515629 -1.940654594808704 0  -1.399725696503028 0.07094941965170476 0  0.7708569079378477 -1.811504856315902 0  -1.369577568596297 0.674731191858119 0  -0.9228405356787038 -1.729186458441092 0  1.351605937032565 0.4103730663285916 0  -0.06841914769603478 1.477914302665108 0  -0.445995446417646 1.407427469739785 0  -0.9398628279739139 1.140916228250147 0  1.11757605005204 0.9527843487365352 0  1.464808374444842 -1.331057653578291 0  1.985740109398459 0.07559444626071188 0  -1.710116872017433 -0.9886431747416021 0  -0.07848115741744362 -1.214014583498196 0  1.895587287176234 -0.6131315871086682 0  -1.914282207733521 0.5909952458044766 0  -0.04120273787683795 0.773950614991352 0  -0.6610903509267175 1.851031370776407 0  -1.982074378090423 -0.2681305380920989 0  -0.6281617332299105 0.3804189594132555 0  0.5543029961216209 1.877853442290245 0  0.5728619081506645 -0.2064377277516614 0  -0.01941917184213979 1.966514897014006 0  -0.6208716699916709 -1.061145743657463 0  1.700281361113877 1.0688448428113 0  -1.468976861187211 1.360926745764064 0  0.1042685062373676 -1.989885768230595 0  0.5884073940868693 0.4640243083623758 0  -1.104992313523454 0.8337231861022489 0  0.7870888702719032 1.173628057962921 0  -0.5808926927882815 -0.2493264294815026 0  1.273669032978034 1.565123702661769 0  -0.9826950523375994 1.76398059870038 0  0.01631406649127403 -0.4942989605239783 0  0.2914093821391483 1.39294502897718 0  -1.299009536111111 0.3626770156610915 0  -1.036731263932313 -0.6713521505664204 0  -1.567425166383969 -1.262546076354211 0  1.203993894373042 -0.3789884090986446 0  1.18534409708989 0.6571448772986681 0  0.4703978344505962 -1.087230510977444 0  0.278829441737829 1.998334147503651 0  -1.341158644429722 -0.2075760339017498 0  0.9866646083671818 -0.8802225278610417 0  0.2316146893750661 -1.588325051488729 0  -1.091169153769945 -1.195594094802566 0  -0.02014202670947276 0.4511729499279922 0  0.9095276069481587 -1.333498782158485 0  1.379413626251568 0.1356074682104977 0  -0.6858682678394515 1.259436141754474 0  1.449420353169713 -0.7516219894438989 0  -1.672715972612214 1.159481088795662 0  -0.2901439190363315 2.035112379885634 0  -0.007233812675358632 -0.1225041516998276 0  -0.2410647550794993 0.02003658658831898 0  -0.2433241381794322 0.2848678735179605 0  1.687878825276822 -0.07631830233742579 0  -0.7628324261384654 0.08343511192512962 0  0.7599096024077212 0.1992976462724338 0  0.2240288506151699 0.8279826743075137 0  1.743336632138417 0.8071593371353301 0  -2.016731851309391 0.3361659651044115 0  -0.3122640908618292 0.7957711546935466 0  -0.5519925649455032 0.6334306482963853 0  2.013547250605229 0.3521153931075436 0  0.4064
[...]
<PointData  Vectors="f_2885-0"> 
<DataArray  type="Float64"  Name="f_2885-0"  NumberOfComponents="3" format="ascii">-9.1227018897053515e-03 -7.5472893340510758e-02 0.0000000000000000e+00  7.9690632923917447e-03 -8.5999498221080564e-02 0.0000000000000000e+00  2.7781717010603200e-02 -9.5539668017820600e-02 0.0000000000000000e+00  5.0436667459030957e-02 -1.0352494254008686e-01 0.0000000000000000e+00  7.5198525125958246e-02 -1.0874991089618688e-01 0.0000000000000000e+00  1.0044516369170395e-01 -1.0853596522669508e-01 0.0000000000000000e+00  1.2507543003628144e-01 -1.0332226054484418e-01 0.0000000000000000e+00  1.4346729307438999e-01 -9.0415110255678333e-02 0.0000000000000000e+00  1.4713411088048894e-01 -6.7597470635156059e-02 0.0000000000000000e+00  1.3906686040961289e-01 -4.1570766744669356e-02 0.0000000000000000e+00  1.2565245172923015e-01 -1.7936363478362399e-02 0.0000000000000000e+00  1.0548575214536259e-01 3.1290126525894786e-03 0.0000000000000000e+00  8.2201964042568271e-02 1.9732843704010839e-02 0.0000000000000000e+00  5.6074900863246208e-02 3.2047857833889234e-02 0.0000000000000000e+00  2.6912629133452461e-02 3.9048899573175928e-02 0.0000000000000000e+00  -3.6125894629847168e-03 4.0724050802539581e-02 0.0000000000000000e+00  -3.4453863683250228e-02 3.7324478677642908e-02 0.0000000000000000e+00  -6.3141822310871829e-02 2.8249030968243737e-02 0.0000000000000000e+00  -8.8813227706119185e-02 1.4282301957048913e-02 0.0000000000000000e+00  -1.1001994495052571e-01 -3.6688267783990484e-03 0.0000000000000000e+00  -1.2753427296140121e-01 -2.5826971860419608e-02 0.0000000000000000e+00  -1.4022064556496400e-01 -5.0737599311567717e-02 0.0000000000000000e+00  -1.4569336256917129e-01 -7.6379756708217769e-02 0.0000000000000000e+00  -1.3673218044338539e-01 -9.6223326376986690e-02 0.0000000000000000e+00  -1.1777880490151191e-01 -1.0855092591387504e-01 0.0000000000000000e+00  -9.3828157197883413e-02 -1.1298792560787006e-01 0.0000000000000000e+00  -6.7729519089755219e-02 -1.1061616398116632e-01 0.0000000000000000e+00  -4.2778170974458365e-02 -1.0308476239309194e-01 0.0000000000000000e+00  -2.1368529463588491e-02 -9.5221076320223363e-02 0.0000000000000000e+00  -2.1109187218336556e-03 -8.4556570648650839e-02 0.0000000000000000e+00  1.4285929588593243e-02 -7.2543315930488003e-02 0.0000000000000000e+00  2.7993614227353074e-02 -6.0315168464516448e-02 0.0000000000000000e+00  3.9486663173772613e-02 -4.7814338764920562e-02 0.0000000000000000e+00  4.8122184247162456e-02 -3.3112890052054672e-02 0.0000000000000000e+00  5.3753054204277173e-02 -1.7701797275502206e-02 0.0000000000000000e+00  5.8364045852670784e-02 -5.3892232300569512e-03 0.0000000000000000e+00  5.8564538800550459e-02 9.7218120617537217e-03 0.0000000000000000e+00  5.6994477700712115e-02 2.3020933250059741e-02 0.0000000000000000e+00  5.3506138926263908e-02 3.4975021204110883e-02 0.0000000000000000e+00  4.7265608436636519e-02 4.6195461909637824e-02 0.0000000000000000e+00  3.8562579200872422e-02 5.5957561067679164e-02 0.0000000000000000e+00  3.1169311995333931e-02 6.2733121469675523e-02 0.0000000000000000e+00  1.9237377384283095e-02 6.8595116637596265e-02 0.0000000000000000e+00  8.8263119391906886e-03 7.1573703614492237e-02 0.0000000000000000e+00  -2.5060629802539612e-03 7.2352648217960114e-02 0.0000000000000000e+00  -1.2896477303792279e-02 7.0964058214155565e-02 0.0000000000000000e+00  -2.5158614977917267e-02 6.6905515345475883e-02 0.0000000000000000e+00  -3.5245539292203233e-02 6.0778709424591106e-02 0.0000000000000000e+00  -4.2387370948054108e-02 5.3506861978968187e-02 0.0000000000000000e+00  -5.0454901376475757e-02 4.3100662955639454e-02 0.0000000000000000e+00  -5.5607427637329121e-02 3.1677210829761028e-02 0.0000000000000000e+00  -5.7784180852783806e-02 1.9922621136698928e-02 0.0000000000000000e+00  -5.8088692314491173e-02 7.0156835316668191e-03 0.0000000000000000e+00  -5.6697207892022865e-02 -7.5216309499747678e-03 0.0000000000000000e+00  -5.2572982478814756e-02 -2.2326646968900531e-02 0.0000000000000000e+00  -4.5495168381867214e-02 -3.6113524369039418e-02 0.0000000000000000e+00  -3.5908912423396118e-02 -4.9243101125256282e-02 0.0000000000000000e+00  -2.3908965648952472e-02 -6.4453322404958074e-02 0.0000000000000000e+00  1.3424417547237441e-01 1.8908217064676776e-05 0.0000000000000000e+00  1.3373434951861360e-01 1.1690492327535230e-02 0.0000000000000000e+00  1.3221680517648751e-01 2.3282769564646637e-02 0.0000000000000000e+00  1.2965234668298378e-01 3.4729975952094753e-02 0.0000000000000000e+00  1.2615825773057304e-01 4.5904507239556483e-02 0.0000000000000000e+00  1.2164218466923822e-01 5.6718048750144773e-02 0.0000000000000000e+00  1.1625998329160635e-01 6.7137620242585433e-02 0.0000000000000000e+00  1.0995470152711559e-01 7.6988224954945977e-02 0.0000000000000000e+00  1.0284310308355119e-01 8.6303100116727524e-02 0.0000000000000000e+00  9.4928378197069424e-02 9.4906729552204111e-02 0.0000000000000000e+00  8.6292586928193693e-02 1.0282369794809819e-01 0.0000000000000000e+00  7.7029743406278314e-02 1.0996930971731605e-01 0.0000000000000000e+00  6.7122725612960191e-02 1.1624078469030590e-01 0.0000000000000000e+00  5.6730774196859166e-02 1.2165322489135341e-01 0.0000000000000000e+00  4.5915813326772310e-02 1.2613595267667069e-01 0.0000000000000000e+00  3.4743338295863624e-02 1.2966072106091706e-01 0.0000000000000000e+00  2.3308778056521030e-02 1.3219894503014232e-01 0.0000000000000000e+00  1.1717224058760117e-02 1.3376017901559928e-01 0.0000000000000000e+00  2.2592575988850370e-06 1.3423500926397725e-01 0.0000000000000000e+00  -1.1706294899681698e-02 1.3372915226563184e-01 0.0000000000000000e+00  -2.3340456020491052e-02 1.3222730299473950e-01 0.0000000000000000e+00  -3.4741530092658360e-02 1.2969834092428528e-01 0.0000000000000000e+00  -4.5910968337131326e-02 1.2613872000153611e-01 0.0000000000000000e+00  -5.6735981668536578e-02 1.2165945151552190e-01 0.0000000000000000e+00  -6.7136070571877066e-02 1.1627752712359748e-01 0.0000000000000000e+00  -7.6997262294170740e-02 1.0995671979070745e-01 0.0000000000000000e+00  -8.6287522071204645e-02 1.0282174219915267e-01 0.0000000000000000e+00  -9.4919763796160669e-02 9.4911195821113722e-02 0.0000000000000000e+00  -1.0286096893861278e-01 8.6288001140378087e-02 0.0000000000000000e+00  -1.0997415452744927e-01 7.7012369382123261e-02 0.0000000000000000e+00  -1.1624562999972972e-01 6.7109768687733481e-02 0.0000000000000000e+00  -1.2164667039505854e-01 5.6714621986015450e-02 0.0000000000000000e+00  -1.2616545250132757e-01 4.5887291223050700e-02 0.0000000000000000e+00  -1.2967577713596939e-01 3.4739098737515857e-02 0.0000000000000000e+00  -1.3220665708280899e-01 2.3322373035733174e-02 0.0000000000000000e+00  -1.3370981267676077e-01 1.1698982143242168e-02 0.0000000000000000e+00  -1.3424081772429108e-01 -3.0535489486953931e-06 0.0000000000000000e+00  -1.3373614395904734e-01 -1.1696211607703701e-02 0.0000000000000000e+00  -1.3220595563683157e-01 -2.3310021311724750e-02 0.0000000000000000e+00  -1.2963657793127575e-01 -3.4736537225500935e-02 0.0000000000000000e+00  -1.2614400300564355e-01 -4.5926036927574396e-02 0.0000000000000000e+00  -1.2167279539242207e-01 -5.6724019733520134e-02 0.0000000000000000e+00  -1.1627141816273885e-01 -6.7107243645756209e-02 0.0000000000000000e+00  -1.0995062183130506e-01 -7.6983345411006612e-02 0.0000000000000000e+00  -1.0284483516532512e-01 -8.6299089719600083e-02 0.0000000000000000e+00  -9.4912956441909668e-02 -9.4908678947405081e-02 0.0000000000000000e+00  -8.6288923277302726e-02 -1.0285339626812171e-01 0.0000000000000000e+00  -7.6991510277514538e-02 -1.0995376134189547e-01 0.0000000000000000e+00  -6.7119549097118064e-02 -1.1628107304613150e-01 0.0000000000000000e+00  -5.6763541061997762e-02 -1.2167324263376268e-01 0.0000000000000000e+00  -4.5910189103998147e-02 -1.2613755938760965e-01 0.0000000000000000e+00  -3.4746300377334567e-02 -1.2969283728531852e-01 0.0000000000000000e+00  -2.3309792812345135e-02 -1.3222356015815201e-01 0.0000000000000000e+00  -1.1703661438641121e-02 -1.3375420591770587e-01 0.0000000000000000e+00  7.1086043548240463e-07 -1.3423485931284493e-01 0.0000000000000000e+00  1.1698883530891250e-02 -1.3375894540444333e-01 0.0000000000000000e+00  2.3307751882078644e-02 -1.3219869415965788e-01 0.0000000000000000e+00  3.4749258074362466e-02 -1.2968950943073942e-01 0.0000000000000000e+00  4.5912178364322001e-02 -1.2613580402346347e-01 0.0000000000000000e+00  5.6744818695349912e-02 -1.2168615272464837e-01 0.0000000000000000e+00  6.7119198495008317e-02 -1.1624697147508581e-01 0.0000000000000000e+00  7.7003855297492776e-02 -1.0998409737923416e-01 0.0000000000000000e+00  8.6298389236276821e-02 -1.0284653950508275e-01 0.0000000000000000e+00  9.4913397701404348e-02 -9.4907855716582071e-02 0.0000000000000000e+00  1.0284752616522713e-01 -8.6298600559803151e-02 0.0000000000000000e+00  1.0994520115996248e-01 -7.6983859811846453e-02 0.0000000000000000e+00  1.1623389218008198e-01 -6.7100666765422784e-02 0.0000000000000000e+00  1.2164503433369700e-01 -5.6714597800472319e-02 0.0000000000000000e+00  1.2611728939082228e-01 -4.5900896116604965e-02 0.0000000000000000e+00  1.2963828872454125e-01 -3.4734040484366416e-02 0.0000000000000000e+00  1.3217175432697700e-01 -2.3308405130084787e-02 0.0000000000000000e+00  1.3370104391527843e-01 -1.1695372198414529e-02 0.0000000000000000e+00  -9.6324177749737691e-04 1.3672683448818182e-01 0.0000000000000000e+00  -3.1575991370579098e-03 -8.1641330679181529e-02 0.0000000000000000e+00  2.8114566284561476e-02 -7.7108070815438565e-02 0.0000000000000000e+00  -3.7130735486281707e-02 -7.0899981193051631e-02 0.0000000000000000e+00  4.5876917332351698e-02 -5.4660525470127036e-02 0.0000000000000000e+00  -4.5359067021358231e-02 -5.0018006710786392e-02 0.0000000000000000e+00  5.0231156159411323e-02 -5.0583813231451523e-02 0.0000000000000000e+00  -5.9827222461305236e-02 -5.1900225200995471e-02 0.0000000000000000e+00  7.9659146028925626e-02 -4.2867800332793068e-02 0.0000000000000000e+00  -8.9357901211009894e-02 -3.5407173735835865e-02 0.0000000000000000e+00  1.0150256027053034e-01 -7.5924337343254295e-03 0.0000000000000000e+00  -1.0318042183483059e-01 1.5637222467398203e-02 0.0000000000000000e+00  9.2986127766600382e-02 4.8636287531868584e-02 0.0000000000000000e+00  -7.5475885524000030e-02 7.2152779149150456e-02 0.0000000000000000e+00  2.3782713155937510e-02 1.0003926596281622e-01 0.0000000000000000e+00  -3.0340118629675273e-02 1.0444686458434269e-01 0.0000000000000000e+00  -3.2286710648837223e-02 5.7583512426489881e-02 0.0000000000000000e+00  3.5114292683636965e-02 5.7520185522690989e-02 0.0000000000000000e+00  -3.1805511786720454e-02 8.9034045922938315e-02 0.0000000000000000e+00  -1.1750635460621708e-02 1.2568374052647435e-01 0.0000000000000000e+00  2.5237082917097864e-02 9.4160705085497592e-02 0.0000000000000000e+00  -3.6016267295723201e-02 -1.0175154907819818e-01 0.0000000000000000e+00  6.0804540207045163e-02 6.7607770548764198e-02 0.0000000000000000e+00  1.3169126046208074e-02 1.2502091572703680e-01 0.0000000000000000e+00  2.7176737461444521e-02 -1.1051546266283635e-01 0.0000000000000000e+00  7.4876989079325371e-02 -8.4179218546924117e-02 0.0000000000000000e+00  3.9908434390229846e-03 -5.5450451929396127e-02 0.0000000000000000e+00  -8.1568133615867580e-02 -7.7661208116058048e-02 0.0000000000000000e+00  -9.0331353638115550e-02 -4.8145129995513535e-02 0.0000000000000000e+00  -8.6824602892552442e-03 -4.6375555718056731e-02 0.0000000000000000e+00  9.4824297685330100e-02 -5.3158304296321790e-02 0.0000000000000000e+00  1.0422764742540648e-01 -3.7839042514539463e-02 0.0000000000000000e+00  -1.1926101062952077e-01 1.3643073783535919e-02 0.0000000000000000e+00  -1.1099954384487384e-01 -2.8232968076529825e-02 0.0000000000000000e+00  1.1892164795615193e-01 -3.9006358154491994e-03 0.0000000000000000e+00  -1.3583263068098877e-02 -6.0899856813052398e-02 0.0000000000000000e+00  7.7709380254459767e-02 9.3968241014799225e-02 0.0000000000000000e+00  1.3098945342708923e-02 -5.7899441976748227e-02 0.0000000000000000e+00  1.1189074370880416e-01 5.1295750833011466e-02 0.0000000000000000e+00  -9.7985572955616509e-02 7.4398634346268630e-02 0.0000000000000000e+00  1.1882668902592066e-02 -6.3092271529882366e-02 0.0000000000000000e+00  -2.2406051615245906e-02 -5.6163764223290599e-02 0.0000000000000000e+00  1.6441847397287764e-02 -6.8303610072273840e-02 0.0000000000000000e+00  -1.6455947917522737e-02 -1.1887413069160391e-01 0.0000000000000000e+00  -3.0616889214022419e-02 -6.8193646400112856e-02 0.0000000000000000e+00  5.3009445394513376e-02 -1.0904625528737391e-01 0.0000000000000000e+00  -8.3995935566327465e-02 -2.8175065566393948e-02 0.0000000000000000e+00  -6.2931837697491930e-02 -1.0211731868651990e-01 0.0000000000000000e+00  5.7346403596814810e-02 -5.3184968451021206e-02 0.0000000000000000e+00  -6.3841061141352668e-03 8.2080227446916523e-02 0.0000000000000000e+00  -4.5427964463825840e-02 7.0363973207594702e-02 0.0000000000000000e+00  -8.1140419525057197e-02 2.5249382463600780e-02 0.0000000000000000e+00  8.5182393000369755e-02 -1.2429493933156502e-03 0.0000000000000000e+00  9.3157650537878001e-02 -7.3838835394570174e-02 0.0000000000000000e+00  1.1816315094315259e-01 -2.2129263561817616e-02 0.0000000000000000e+00  -1.0038525353785974e-01 -5.7699131258922620e-02 0.0000000000000000e+00  7.6210111976678140e-03 -3.2896004055616671e-02 0.0000000000000000e+00  1.0820313016502815e-01 -4.5175150152620386e-02 0.0000000000000000e+00  -1.2490392731875796e-01 3.9230704220535456e-03 0.0000000000000000e+00  -4.5511140725738655e-03 9.2946073863750006e-02 0.0000000000000000e+00  -5.7526611498933594e-02 1.0938893893639200e-01 0.0000000000000000e+00  -1.1424461478552370e-01 -3.4783733245174919e-02 0.0000000000000000e+00  -4.6914321285454481e-02 3.2772441414111099e-02 0.0000000000000000e+00  4.9588184609269823e-02 1.1245098829540552e-01 0.0000000000000000e+00  -1.0057572391018480e-02 1.5915857105383242e-02 0.0000000000000000e+00  -1.2517397345234978e-03 1.2288367505473614e-01 0.0000000000000000e+00  3.5490429173002672e-02 -5.5659071651851529e-02 0.0000000000000000e+00  1.2142783630919840e-01 3.6553535800142659e-02 0.0000000000000000e+00  -1.1177860304336851e-01 6.0220562689136552e-02 0.0000000000000000e+00  6.8341746376323065e-03 -1.2285945276002624e-01 0.0000000000000000e+00  4.6734616894196654e-02 4.2036911055137613e-02 0.0000000000000000e+00  -7.8100610276125831e-02 -1.2212461691264987e-02 0.0000000000000000e+00  7.2307596038726357e-02 3.4271679991960791e-02 0.0000000000000000e+00  1.9092553588118417e-02 7.4741494107102334e-03 0.0000000000000000e+00  1.0026171998682880e-01 7.9088827523930302e-02 0.0000000000000000e+00  -8.0173246174514295e-02 9.8965628251596147e-02 0.0000000000000000e+00  -3.9523272506581889e-03 1.3015385927392936e-01 0.0000000000000000e+00  3.1592725775038737e-02 7.2963573140850974e-02 0.0000000000000000e+00  -5.0057170158418846e-02 -5.8347852798008873e-02 0.0000000000000000e+00  5.3715139324735282e-02 -6.4353837978727804e-02 0.0000000000000000e+00  -9.8376941403945345e-02 -7.0888127778361357e-02 0.0000000000000000e+00  -3.2477211947054975e-02 -7.6918992149055926e-02 0.0000000000000000e+00  6.8091155022072095e-02 -3.3225376313574473e-02 0.0000000000000000e+00  -3.8580869279076266e-02 -4.7438538543410076e-02 0.0000000000000000e+00  2.4365919228716528e-02 1.2403662240384661e-01 0.0000000000000000e+00  -1.1826885854574786e-03 -7.2475844983058119e-02 0.0000000000000000e+00  -1.9130760575303510e-02 -5.6722416005795639e-02 0.0000000000000000e+00  9.5268892527874006e-03 -8.1962237467569352e-02 0.0000000000000000e+00  -4.4565343136942250e-02 -6.1551965859955843e-02 0.0000000000000000e+00  -2.6403379253057148e-03 1.1623501713158921e-01 0.0000000000000000e+00  3.9932891290459467e-02 -6.9938140510355878e-02 0.0000000000000000e+00  3.3529431367538026e-02 -6.6672147850873067e-02 0.0000000000000000e+00  -6.5576407548885246e-02 4.8368348684269535e-02 0.0000000000000000e+00  4.5492922060998572e-02 -4.8853453251470606e-02 0.0000000000000000e+00  -1.2013675262115842e-01 4.5643279048294065e-02 0.0000000000000000e+00  -2.3687100818502151e-02 1.2632273695216192e-01 0.0000000000000000e+00  -1.6863814070362903e-03 1.4884198685675232e-01 0.0000000000000000e+00  -1.8353202109521308e-02 1.2386171337464856e-01 0.0000000000000000e+00  -2.5029092904103940e-02 1.1170156118618300e-01 0.0000000000000000e+00  7.1976117118615998e-02 -4.7545913005722515e-02 0.0000000000000000e+00  -2.7038515465046216e-02 -2.3998178364931958e-02 0.0000000000000000e+00  3.5899340733306931e-02 -1.2963652593097815e-02 0.0000000000000000e+00  2.2561301493858713e-02 8.2345716688709686e-02 0.0000000000000000e+00  1.1958586798909786e-01 1.0237615293282341e-02 0.0000000000000000e+00  -1.2615493673243916e-01 -6.1739821653094490e-03 0.0000000000000000e+00  -3.1278426641041884e-02 7.5765787414081492e-02 0.0000000000000000e+00  -5.0133431310590643e-02 5.1195640025495731e-02 0.0000000000000000e+00  1.2597046337246928e-01 -4.6520319895423387e-03 0.0000000000000000e+00  -7.3558912803463120e-02 6.0023378523298428e-02 0.0000000000000000e+00  8.0603109681109328e-02 -5.7224236499915745e-02 0.0000000000000000e+00  2.4919566859650310e-02 1.0946588476810790e-01 0.0000000000000000e+00  1.6168218825047834e-02 1.2301083061087942e-01 0.0000000000000000e+00  4.3227727721408503e-02 6.0156392820609993e-02 0.0000000000000000e+00  -7.0399485051686583e-02 -4.9440525179338703e-02 0.0000000000000000e+00  7.1388351174379056e-02 -1.0458880842174099e-01 0.0000000000000000e+00  8.9123867839610169e-02 -3.3260855215991779e-02 0.0000000000000000e+00  -1.7657224028460042e-02 -9.4643544771154359e-02 0.0000000000000000e+00  3.8649584350536566e-02 -2.8181620819253406e-02 0.0000000000000000e+00  -5.1527898803619750e-02 -1.1699251553975003e-01 0.0000000000000000e+00  -4.1445815488374158e-02 -8.6273929831086338e-02 0.0000000000000000e+00  -3.4057942833694212e-02 -1.2312370855458431e-01 0.0000000000000000e+00  -8.0302480486626610e-02 -9.7388934759110882e-02 0.0000000000000000e+00  6.2135853133861635e-02 8.8665948128095931e-02 0.0000000000000000e+00  -5.2315991766277818e-02 9.0162324061076812e-02 0.0000000000000000e+00  -1.0247348966541792e-01 4.3311802889800244e-02 0.0000000000000000e+00  -6.1524240019924549e-03 1.0292736827258278e-01 0.0000000000000000e+00  1.0774526197629965e-01 -6.5168442971444321e-02 0.0000000000000000e+00  5.4587806897442893e-02 -8.9162935776383428e-02 0.0000000000000000e+00  -1.1901092048506921e-01 -4.4058212937994459e-02 0.0000000000000000e+00  1.1056216543886158e-01 2.0792322688743300e-02 0.0000000000000000e+00  -4.3589822004142319e-02 -5.0056277875079006e-02 0.0000000000000000e+00  -7.0323810462558492e-02 -6.1169569800356087e-02 0.0000000000000000e+00  6.3306421558449233e-02 5.3891001075390361e-02 0.0000000000000000e+00  -5.9824169179699259e-02 -4.1133373555124690e-02 0.0000000000000000e+00  6.1864764525926721e-02 1.1511146471603456e-01 0.0000000000000000e+00  1.0059544262434181e-01 2.8050036348179319e-02 0.0000000000000000e+00  4.3043107235447346e-02 -1.2275302862701708e-01 0.0000000000000000e+00  -1.1412039888652378e-01 -5.2903436666520864e-02 0.0000000000000000e+00  -1.0921696240478661e-01 -1.1807283159964125e-02 0.0000000000000000e+00  -8.9756150272316579e-02 5.3418037404940215e-02 0.0000000000000000e+00  1.4574738467167199e-02 -1.0923303988396391e-02 0.0000000000000000e+00  -3.9600777540948470e-02 -5.3857763933517898e-02 0.0000000000000000e+00  4.7482329408080608e-02 9.1423521866695293e-02 0.0000000000000000e+00  4.7541533845495150e-02 5.6027002533602502e-02 0.0000000000000000e+00  7.8861623963926139e-02 5.7536984016814154e-02 0.0000000000000000e+00  -1.0161938847818684e-01 -3.0277765984346654e-02 0.0000000000000000e+00  4.8502426915186581e-02 -5.3748957508368618e-02 0.0000000000000000e+00  -1.9686348592574489e-02 -7.8870135248697265e-02 0.0000000000000000e+00  -1.5179413374311567e-02 -6.6718843668464881e-02 0.0000000000000000e+00  -1.1237032747255789e-03 -6.0562387057366988e-02 0.000000