<?xml version="1.0"?>
<VTKFile type="UnstructuredGrid"  version="0.1"  >
<UnstructuredGrid>
<Piece  NumberOfPoints="829" NumberOfCells="1578">
<Points>
<DataArray  type="Float64"  NumberOfComponents="3"  format="ascii">-0.97225864180191 -0.01028214193925242 0  -0.965406574324672 -0.1158425621024138 0  -0.9463238731434428 -0.2198557464095144 0  -0.9154191099746899 -0.3207524755957395 0  -0.8731142992442202 -0.4176156426209818 0  -0.8203794583340035 -0.5084195729672432 0  -0.7588176022221408 -0.591744284979089 0  -0.6896962781079972 -0.6666321508866863 0  -0.6139463040132813 -0.7329317295145422 0  -0.5325258037386347 -0.7905193121604661 0  -0.4454202059576104 -0.8394631228666983 0  -0.3543916293197317 -0.8790854486476142 0  -0.2595191427327246 -0.9096953476908315 0  -0.1622734187925878 -0.9305297897931545 0  -0.06374955557336437 -0.9417063416217361 0  0.0352284765457898 -0.9432440349595049 0  0.134286393017985 -0.9348538974365448 0  0.2321399051065998 -0.9166962227112695 0  0.3276318093880514 -0.888784116858898 0  0.420047013798289 -0.8517585730186048 0  0.5080813124963437 -0.805638092292796 0  0.5911491629256095 -0.7506449861767598 0  0.6684511806199557 -0.6871647341627115 0  0.7395471624048608 -0.6147781176759147 0  0.8035212385730223 -0.5338072448427836 0  0.8589047729028738 -0.4449238863384886 0  0.9043183551435557 -0.3495515131767575 0  0.9385801461858702 -0.2495935344476081 0  0.9610039326702737 -0.1464633965556753 0  0.9713437572234599 -0.04117455442735762 0  0.9694743794214207 0.0645496012925061 0  0.9556517689157392 0.1689890927451904 0  0.930112737695534 0.2710403820194064 0  0.8929661103177063 0.3701226768177173 0  0.8452870418839258 0.4639484094230689 0  0.7872694925981665 0.5519772163027937 0  0.7200725239281647 0.6329089244514332 0  0.6442165839461023 0.7062195855542656 0  0.5607486490754167 0.77088301088915 0  0.47084764088545 0.8261902084105447 0  0.3754392186108086 0.8716030270166671 0  0.2759994946190861 0.9064326503343856 0  0.1732002112374609 0.9304015280980124 0  0.06804791430574339 0.9433062511029052 0  -0.03741587241163121 0.945032804559173 0  -0.1427382621973153 0.9351759937544918 0  -0.2461875372224568 0.914282614785599 0  -0.3467554491068875 0.882505778005525 0  -0.4433927159434483 0.8402253459255139 0  -0.5351557164468915 0.7876907523562848 0  -0.6204788194936715 0.7257261563369969 0  -0.6983229379853315 0.6553059292020648 0  -0.7683262331590359 0.5765754113869592 0  -0.8293914377747739 0.4903110074428453 0  -0.8804587393116872 0.3977298892501506 0  -0.9205230190023721 0.3004847032325358 0  -0.949663907110979 0.1988671201577808 0  -0.966955549750104 0.09500029636397875 0  2.034880382258028 9.422137579743396e-05 0  2.025085634385957 0.1994523664401962 0  1.995799594527137 0.3968928962198678 0  1.947231971443893 0.5907864964589421 0  1.879993554295704 0.7787049996171576 0  1.794609468353981 0.9592392948889713 0  1.691946550960464 1.130521679358886 0  1.572989799978314 1.290917848692733 0  1.438882274435774 1.438882070199973 0  1.290919656112033 1.57298872020218 0  1.130522990519208 1.691946818168496 0  0.9592402516851335 1.794610583299636 0  0.7787175146026456 1.879990888104671 0  0.5906986415324098 1.947266153512506 0  0.3969746827352812 1.995789662674127 0  0.1995506115131867 2.0250751140138 0  -9.73142506199746e-05 2.034883234449206 0  -0.1994402634766692 2.025090370550919 0  -0.3970007936635868 1.995784836321441 0  -0.590602022479114 1.947289958135499 0  -0.7788060659681716 1.879949569688969 0  -0.9592287271909227 1.794615648383802 0  -1.130524849995463 1.691945869461239 0  -1.290919018479444 1.57298935832377 0  -1.43888306227159 1.438881316396339 0  -1.572989308346353 1.290918123166246 0  -1.691946235635883 1.130522866746267 0  -1.794615047227498 0.9592266078557041 0  -1.879947828652158 0.7788054602480441 0  -1.947247768586381 0.5906898608257292 0  -1.995802761297914 0.3968710691715381 0  -2.025069759435469 0.1995674749063399 0  -2.034867152682168 -1.89492488900596e-07 0  -2.025072370355325 -0.1995497388108523 0  -1.995783281379979 -0.3969862722247563 0  -1.947286411231375 -0.5906035464555172 0  -1.879946844209746 -0.7788049319950723 0  -1.794613182728696 -0.9592270951882975 0  -1.691945766076894 -1.130522061839861 0  -1.572979287247849 -1.290926454697505 0  -1.438947384434328 -1.438809156610001 0  -1.290842040860021 -1.573045157212771 0  -1.130521969733441 -1.691944850369383 0  -0.9593203426274968 -1.79456259461113 0  -0.7786249606635069 -1.880023490382639 0  -0.5907102264885218 -1.947260576022562 0  -0.3969730730776342 -1.995790078327268 0  -0.1995495509799368 -2.025074427035332 0  0.0001146015611759069 -2.034881611270361 0  0.199340011873356 -2.025094152264021 0  0.397081375010753 -1.995764182562721 0  0.5906848262817814 -1.947268232523056 0  0.7787191173123443 -1.879990076501835 0  0.9592391497945918 -1.794609728987635 0  1.130521980202912 -1.691946397223585 0  1.290918906416498 -1.572988157214309 0  1.438880670749717 -1.438882570132781 0  1.572995057494082 -1.290908291691159 0  1.691887960339632 -1.130598620978091 0  1.794649583547553 -0.9591506249354271 0  1.879982837645231 -0.7787274606110768 0  1.947263646644354 -0.5906967910586409 0  1.995786198382226 -0.3969743488011429 0  2.02507202883202 -0.1995497003883044 0  0.002069467685006295 0.01264001586290704 0  0.5058483780780718 1.403934605078068 0  -0.07352907307385464 1.491257682265205 0  -0.6417892592876485 1.349399560910408 0  -0.3356344435752923 -1.455299880061705 0  -1.114479991589236 1.002318564309279 0  1.010013678599593 1.106722105465347 0  0.2906130234425223 -1.463461924070578 0  -0.8921947495593189 -1.206487585230041 0  0.8665381414489791 -1.22126488763285 0  1.361516451357615 0.6360938281253526 0  -1.419082437460171 0.4999670295195915 0  -1.502423065475916 -0.083087306931549 0  1.287940663462706 -0.776421184616083 0  1.504464742199065 0.06649365494011966 0  -1.288507257982469 -0.7768457601666916 0  -0.4829591069261074 -0.07124542938403966 0  0.4895659809858215 -0.03573365010498111 0  -0.2988524519012385 0.3792274424537834 0  0.2804080068494312 0.3934209996294396 0  0.2008170422895987 -0.4186007072941977 0  1.366552680615515 -0.3500519862283904 0  -0.2377402932330826 -0.4367295381623347 0  -1.289154427136306 -0.401094702942755 0  -1.644656280856431 -0.3994782573791286 0  0.247820340978409 1.664872760721406 0  -0.4103723273112175 1.632817922939515 0  0.868616570123385 1.443502342124896 0  -1.006471476894951 1.351222499471066 0  -0.7203161484293189 -1.523595443231204 0  1.356976245516252 1.000496079282733 0  -1.668443701982983 0.2420571860325707 0  -1.449062691066476 0.8626395663887803 0  1.227134928056485 -1.137574148173315 0  -1.249054922550814 -1.132873015385416 0  1.637396132654817 0.4045246358573733 0  -0.08324550314721735 -1.696301388351332 0  1.585817760004425 -0.6086815801056923 0  1.693353445208083 -0.2552719073590855 0  0.7270025655440154 -1.537715550316927 0  0.01138048182366215 0.6094924899311155 0  -0.02121694181422035 -1.374404760080321 0  0.5137647835254658 -1.195251211355918 0  -0.6027305545975296 0.2304369922404666 0  0.5240170846636425 -0.3626638209914409 0  -0.7733856638375437 1.030967806026409 0  -0.5469226155558087 -1.172999545002041 0  0.9782932476721241 -0.9091565207670078 0  0.1896624201167632 1.270329874699785 0  0.5863804787393549 0.270994768061151 0  1.266458424086357 0.3060800463668304 0  0.6839570253905981 1.072559296317884 0  -0.256203781921306 1.229895993299292 0  -1.294546145196694 0.1812514333727636 0  0.9902608578602781 0.79049735121567 0  -0.969451981712399 -0.832769681774298 0  -1.121401152638762 0.6602861890937127 0  -1.58577771745547 -0.7517371584744313 0  -0.5572904651454458 -0.3649675378117782 0  -0.01056012457725489 -0.634650511378108 0  -0.007159538758495653 0.3065321297757826 0  0.2013617765699449 -1.737978168896369 0  0.4817884120852595 -1.683978894144562 0  -0.4306116551420732 -1.719436510698639 0  -0.5063743183163618 1.108084587823175 0  1.057113410758023 -1.42509957772863 0  0.5240561189701193 1.680225338022127 0  -0.1611322510828968 1.753078610248768 0  -0.8220068264646518 1.557337092166837 0  1.105772265627515 0.5389371960841955 0  1.12730223977014 1.355006802514841 0  -0.7388861875210142 -0.9780770964310088 0  -0.2292433219689817 -1.200834391363003 0  -1.3595898424466 1.12222433679941 0  0.191050924629751 -1.206629484792402 0  1.254878207466212 -0.08748734518285844 0  1.136680582486247 -0.5314106560262356 0  -0.9857637887945304 -1.462629127966892 0  0.7072844465832292 -0.9988507169635493 0  -1.085575241268141 -0.5883321323219732 0  1.560980090645503 0.8228204847249485 0  -1.676345992961231 0.5953370735661508 0  -1.776965816827482 -0.090922814325925 0  1.541724926685568 -0.8711077620476878 0  -1.233932977850584 -0.1399842181107805 0  1.766476570805479 0.003735814660840354 0  0.4217754230694818 1.133486447727476 0  -0.2549338363894842 0.6376921652522178 0  -0.02509006223849601 -0.2602459965386303 0  -1.469946510904545 -0.9879519803562773 0  -1.158552226409048 0.4015645991260418 0  -0.9288081740829613 0.8274289519315399 0  -0.7217784135054897 0.00283895852099177 0  -0.228314800645042 -0.1047182099431722 0  0.7160561437217725 -0.1423634462510037 0  -0.2133812498988367 0.1452518112457338 0  0.2665533716540205 0.6448636988449038 0  -0.5316161744998857 0.4719294129710365 0  0.3943496376875479 -0.5757090591088934 0  0.2344547029894732 -0.1426790868243553 0  0.2654375476663524 0.1249535749500985 0  0.5014666496315533 0.506035065974443 0  -0.2380822975681382 -0.6724839324613998 0  -1.421020636352545 -0.589103362356636 0  -0.4322502471899546 -0.5575145234193258 0  0.09001507909360597 1.827940157220588 0  -0.6177559452063708 1.722891923967823 0  -0.03493655170046082 1.270871748923989 0  0.7551570542199815 1.648511051050542 0  -1.231344584014077 1.354806852462595 0  1.358717809319997 1.227703223520113 0  -1.230146490568358 -1.356809221348483 0  1.696539937798488 0.6328601102743556 0  1.796178096151706 0.235729341458829 0  0.5200541167232406 -1.42854245474348 0  1.154844178824512 -0
[...]
<PointData  Vectors="f_1471-0"> 
<DataArray  type="Float64"  Name="f_1471-0"  NumberOfComponents="3" format="ascii">-2.2222377608600703e-02 -1.0522730530190520e-01 0.0000000000000000e+00  -5.1764447788384311e-04 -1.1929448440763556e-01 0.0000000000000000e+00  2.4760648144905906e-02 -1.3016054156470602e-01 0.0000000000000000e+00  5.0512653235405762e-02 -1.3584204078403017e-01 0.0000000000000000e+00  7.8714936946863587e-02 -1.3956295576378619e-01 0.0000000000000000e+00  1.0485566761562809e-01 -1.3511371121315013e-01 0.0000000000000000e+00  1.2389620562319405e-01 -1.1971680129526628e-01 0.0000000000000000e+00  1.3312798942219725e-01 -9.5102820446439681e-02 0.0000000000000000e+00  1.3262054590706998e-01 -6.6796843571782241e-02 0.0000000000000000e+00  1.2271742568660259e-01 -3.7851251854312130e-02 0.0000000000000000e+00  1.1034114623720388e-01 -1.3382919031984778e-02 0.0000000000000000e+00  9.0600618064959670e-02 8.6022306778669091e-03 0.0000000000000000e+00  6.9592784668883564e-02 2.5007194985238564e-02 0.0000000000000000e+00  4.5704921220236804e-02 3.7227627498756903e-02 0.0000000000000000e+00  1.8787557631800070e-02 4.3985580681840671e-02 0.0000000000000000e+00  -1.0506541091975904e-02 4.5217304751920019e-02 0.0000000000000000e+00  -3.6072529940958276e-02 4.0252178182609753e-02 0.0000000000000000e+00  -6.0488651765916647e-02 2.9624111724392162e-02 0.0000000000000000e+00  -8.2906700444877218e-02 1.4338086363584315e-02 0.0000000000000000e+00  -1.0225154428694876e-01 -5.5788819174957833e-03 0.0000000000000000e+00  -1.1886244093445188e-01 -3.0164061979557278e-02 0.0000000000000000e+00  -1.3091088419447053e-01 -5.8493715511509857e-02 0.0000000000000000e+00  -1.3590053598709995e-01 -8.8183630789856068e-02 0.0000000000000000e+00  -1.2989550929290419e-01 -1.1448377962491256e-01 0.0000000000000000e+00  -1.1367671012327350e-01 -1.3261011125495631e-01 0.0000000000000000e+00  -8.9043535408574112e-02 -1.4000354258637862e-01 0.0000000000000000e+00  -6.0129667897788050e-02 -1.3856489352967744e-01 0.0000000000000000e+00  -3.1360661107231180e-02 -1.3289329506873968e-01 0.0000000000000000e+00  -5.8256995834060129e-03 -1.2438958154005460e-01 0.0000000000000000e+00  1.6516168500098204e-02 -1.1061077665795067e-01 0.0000000000000000e+00  3.5498425119069782e-02 -9.5077471054909588e-02 0.0000000000000000e+00  5.1254138299279772e-02 -7.9702974871152216e-02 0.0000000000000000e+00  6.4402834721744115e-02 -6.4221061331149937e-02 0.0000000000000000e+00  7.2191614063808196e-02 -4.3256177288408887e-02 0.0000000000000000e+00  7.8278862279523354e-02 -2.6746371091247917e-02 0.0000000000000000e+00  8.0276814387967785e-02 -8.7265514944002039e-03 0.0000000000000000e+00  8.0301150680067296e-02 6.8434333258058323e-03 0.0000000000000000e+00  7.6157548498238678e-02 2.2896994608446623e-02 0.0000000000000000e+00  6.8727562362743272e-02 3.7461565223036987e-02 0.0000000000000000e+00  5.9833604247433288e-02 4.9369673954271012e-02 0.0000000000000000e+00  4.8125362844382145e-02 5.9486809678521262e-02 0.0000000000000000e+00  3.6915786510470977e-02 6.6292729412918139e-02 0.0000000000000000e+00  2.4143433409284640e-02 7.1253666323993214e-02 0.0000000000000000e+00  7.9799055626193442e-03 7.3834187551274147e-02 0.0000000000000000e+00  -4.6010465706438899e-03 7.5311312670662697e-02 0.0000000000000000e+00  -2.0018186246556102e-02 7.3509207170222593e-02 0.0000000000000000e+00  -3.3267397324324051e-02 6.9238347936874001e-02 0.0000000000000000e+00  -4.5403321695725488e-02 6.2495352102790586e-02 0.0000000000000000e+00  -5.6172693817934237e-02 5.3315586531352453e-02 0.0000000000000000e+00  -6.7064606854905576e-02 4.0813349521563493e-02 0.0000000000000000e+00  -7.4328694603235143e-02 2.7173612093171172e-02 0.0000000000000000e+00  -7.6836131560944917e-02 1.4101890801988442e-02 0.0000000000000000e+00  -7.8766686153190102e-02 -1.9066241623833021e-03 0.0000000000000000e+00  -7.8790128404609305e-02 -2.0839408727943560e-02 0.0000000000000000e+00  -7.5233792182911263e-02 -4.0483034921692064e-02 0.0000000000000000e+00  -6.6229265229317963e-02 -5.6327471920035101e-02 0.0000000000000000e+00  -5.5642594336263118e-02 -7.5810780983795581e-02 0.0000000000000000e+00  -4.0508432957798324e-02 -9.1198727744291094e-02 0.0000000000000000e+00  1.1648910006653419e-01 9.5818259439712030e-04 0.0000000000000000e+00  1.1596491399001536e-01 1.1410001723030675e-02 0.0000000000000000e+00  1.1444248650651030e-01 2.1784315078730847e-02 0.0000000000000000e+00  1.1119695922805899e-01 3.4749064492385733e-02 0.0000000000000000e+00  1.0771388705381990e-01 4.4476882338793343e-02 0.0000000000000000e+00  1.0278580699074642e-01 5.4945169969202796e-02 0.0000000000000000e+00  9.6910202552998106e-02 6.4744521724882931e-02 0.0000000000000000e+00  9.0106862734274359e-02 7.3933418171458959e-02 0.0000000000000000e+00  8.2415489139055984e-02 8.2413252953133467e-02 0.0000000000000000e+00  7.3951874056995978e-02 9.0095838752870305e-02 0.0000000000000000e+00  6.4758114137683079e-02 9.6912769818926311e-02 0.0000000000000000e+00  5.4955333323051046e-02 1.0279686872862578e-01 0.0000000000000000e+00  4.4603664336565194e-02 1.0768706822125076e-01 0.0000000000000000e+00  3.3855323372747589e-02 1.1154332185411119e-01 0.0000000000000000e+00  2.2616767949091045e-02 1.1434005323888213e-01 0.0000000000000000e+00  1.2408344766739236e-02 1.1585921741417327e-01 0.0000000000000000e+00  -9.8882704281117698e-04 1.1651783054431708e-01 0.0000000000000000e+00  -1.1288144434293336e-02 1.1601276816853490e-01 0.0000000000000000e+00  -2.2880157166319835e-02 1.1429119391031688e-01 0.0000000000000000e+00  -3.2874410954696447e-02 1.1178600744068436e-01 0.0000000000000000e+00  -4.5503737916819505e-02 1.0726805926581751e-01 0.0000000000000000e+00  -5.4838926254328436e-02 1.0284774931677533e-01 0.0000000000000000e+00  -6.4776250070848154e-02 9.6903530857761030e-02 0.0000000000000000e+00  -7.3945513894082174e-02 9.0102085126820011e-02 0.0000000000000000e+00  -8.2423381149083805e-02 8.2405806373600704e-02 0.0000000000000000e+00  -9.0101849541493154e-02 7.3936366484550653e-02 0.0000000000000000e+00  -9.6907413491085809e-02 6.4756212625994181e-02 0.0000000000000000e+00  -1.0284201637367997e-01 5.4817350685538176e-02 0.0000000000000000e+00  -1.0725054225408905e-01 4.5497804819283109e-02 0.0000000000000000e+00  -1.1136068521226626e-01 3.3768586315802880e-02 0.0000000000000000e+00  -1.1447437532142715e-01 2.1563762767370404e-02 0.0000000000000000e+00  -1.1580470341664166e-01 1.2579232699399168e-02 0.0000000000000000e+00  -1.1635798112520959e-01 -2.1265242233474196e-06 0.0000000000000000e+00  -1.1583144124371877e-01 -1.2400355636218293e-02 0.0000000000000000e+00  -1.1427546498221458e-01 -2.2733690081402948e-02 0.0000000000000000e+00  -1.1175077075591182e-01 -3.2888785729124681e-02 0.0000000000000000e+00  -1.0724100145552413e-01 -4.5492041568165560e-02 0.0000000000000000e+00  -1.0282363808720141e-01 -5.4822039733654133e-02 0.0000000000000000e+00  -9.6902817310421205e-02 -6.4748412820451809e-02 0.0000000000000000e+00  -9.0001185221239538e-02 -7.4020569817168883e-02 0.0000000000000000e+00  -8.3078630625937677e-02 -8.1673315813196132e-02 0.0000000000000000e+00  -7.3163691832148173e-02 -9.0671180220764966e-02 0.0000000000000000e+00  -6.4748085984269996e-02 -9.6892950334890801e-02 0.0000000000000000e+00  -5.5770382082453454e-02 -1.0231012061052995e-01 0.0000000000000000e+00  -4.3664207007941241e-02 -1.0801932931025594e-01 0.0000000000000000e+00  -3.3972305843238688e-02 -1.1148710703921576e-01 0.0000000000000000e+00  -2.2601120522873119e-02 -1.1434414440684655e-01 0.0000000000000000e+00  -1.2397482310000558e-02 -1.1585245921365316e-01 0.0000000000000000e+00  1.1636836501561357e-03 -1.1650145540947053e-01 0.0000000000000000e+00  1.0269029319007788e-02 -1.1605273877282078e-01 0.0000000000000000e+00  2.3700772134571856e-02 -1.1408254884339181e-01 0.0000000000000000e+00  3.3716348243985200e-02 -1.1156426413205425e-01 0.0000000000000000e+00  4.4619433047630670e-02 -1.0767910438274939e-01 0.0000000000000000e+00  5.4944654565546813e-02 -1.0278816229577573e-01 0.0000000000000000e+00  6.4747916794120106e-02 -9.6908645401682633e-02 0.0000000000000000e+00  7.3944330095986485e-02 -9.0090343510880341e-02 0.0000000000000000e+00  8.2399905379772015e-02 -8.2418112626732140e-02 0.0000000000000000e+00  9.0160283930747778e-02 -7.3836857713474549e-02 0.0000000000000000e+00  9.6316282843683682e-02 -6.5527247940311784e-02 0.0000000000000000e+00  1.0319494550784210e-01 -5.4045014635425645e-02 0.0000000000000000e+00  1.0760603471267337e-01 -4.4704034622932320e-02 0.0000000000000000e+00  1.1151831081522899e-01 -3.3836735362171792e-02 0.0000000000000000e+00  1.1430535610304829e-01 -2.2612980152132190e-02 0.0000000000000000e+00  1.1582812578533663e-01 -1.2399167983301261e-02 0.0000000000000000e+00  1.2117321567072569e-04 1.7624394241759775e-01 0.0000000000000000e+00  5.4710222314866171e-02 7.5849980111050139e-02 0.0000000000000000e+00  -7.5862714909712735e-03 9.0525151747671395e-02 0.0000000000000000e+00  -6.8319580249243589e-02 6.7647746953713450e-02 0.0000000000000000e+00  -8.6575593128498246e-03 -7.7289284682419468e-02 0.0000000000000000e+00  -1.0287055606313350e-01 1.5366607984780687e-02 0.0000000000000000e+00  9.7931061183676463e-02 3.0387886251028822e-02 0.0000000000000000e+00  7.2657780818051881e-03 -7.6875190667670498e-02 0.0000000000000000e+00  -3.0737966153591853e-02 -7.4357183724126780e-02 0.0000000000000000e+00  2.9244147573491797e-02 -7.5153200999928213e-02 0.0000000000000000e+00  1.0370409194135366e-01 -2.9098581927278093e-02 0.0000000000000000e+00  -9.9097579188594784e-02 -4.2303852938931678e-02 0.0000000000000000e+00  -6.2873292954771634e-02 -7.3543341255557643e-02 0.0000000000000000e+00  3.3217696661448338e-02 -6.2958939300464173e-02 0.0000000000000000e+00  7.4147820421955279e-02 -6.9347653864727174e-02 0.0000000000000000e+00  -3.3926674847085239e-02 -6.3554385390225676e-02 0.0000000000000000e+00  -4.1072921279142784e-02 8.3145132962168231e-02 0.0000000000000000e+00  4.5276845385471068e-02 8.0697421031890065e-02 0.0000000000000000e+00  -4.2684996010375044e-02 1.1005493317843236e-01 0.0000000000000000e+00  4.0603132765551747e-02 1.1156509978399164e-01 0.0000000000000000e+00  -1.4671716448742260e-02 1.6398378573363590e-01 0.0000000000000000e+00  2.2460211368145810e-02 -8.2844773966815055e-02 0.0000000000000000e+00  1.7931643033440192e-02 1.5340604748998324e-01 0.0000000000000000e+00  -2.5743318935610650e-03 -8.8704947998939146e-02 0.0000000000000000e+00  -8.0930655246567687e-02 -5.6365735755273226e-02 0.0000000000000000e+00  2.4083395583762390e-02 1.0280633767742942e-01 0.0000000000000000e+00  -3.9072117519436650e-02 9.8972591150502845e-02 0.0000000000000000e+00  7.9611460404561338e-02 7.4461949028248930e-02 0.0000000000000000e+00  -9.0427097044880916e-02 6.2819106763832219e-02 0.0000000000000000e+00  -4.1679440812356292e-02 -9.2813861455742983e-02 0.0000000000000000e+00  1.1099225075566563e-01 2.3086958698360603e-02 0.0000000000000000e+00  -1.0396966407392473e-01 -3.8592185869506170e-02 0.0000000000000000e+00  -1.1378409801679876e-01 9.3410816750938274e-03 0.0000000000000000e+00  6.7162404276821311e-02 -6.8713551808904011e-02 0.0000000000000000e+00  -6.8902731348845905e-02 -6.8436090274935787e-02 0.0000000000000000e+00  1.0890653626320251e-01 -2.8444995647262546e-02 0.0000000000000000e+00  -4.3866943850330836e-03 -1.0138277039236386e-01 0.0000000000000000e+00  7.6826823647480919e-02 -5.6949770492502910e-02 0.0000000000000000e+00  8.9203635018484925e-02 -5.3050808879796539e-02 0.0000000000000000e+00  4.2859122303664954e-02 -9.3654583747245654e-02 0.0000000000000000e+00  2.2766668730362640e-03 1.0849126765679241e-01 0.0000000000000000e+00  3.9442922905410599e-04 -5.6691588989721570e-02 0.0000000000000000e+00  -1.5200068820463849e-02 -5.8074826071254547e-02 0.0000000000000000e+00  -6.5573050442390410e-02 3.9771172998904078e-02 0.0000000000000000e+00  -2.0938824762559392e-02 4.9854899433481106e-02 0.0000000000000000e+00  -8.4134689703533327e-02 2.7287515380196005e-02 0.0000000000000000e+00  1.7892959426091037e-02 -5.9877362734424705e-02 0.0000000000000000e+00  -7.5581946271011174e-03 -7.3679372124252213e-02 0.0000000000000000e+00  2.3195972128503863e-02 7.2723279730493626e-02 0.0000000000000000e+00  6.7225034283392937e-02 4.4012316049345808e-02 0.0000000000000000e+00  7.0444466695591929e-02 -7.4640664643044058e-02 0.0000000000000000e+00  7.5925466910221048e-02 3.7328421298899926e-02 0.0000000000000000e+00  -3.1585326815040810e-02 6.9053630966357610e-02 0.0000000000000000e+00  -5.9009899043591878e-02 -8.3863882069303966e-02 0.0000000000000000e+00  9.3361197696803566e-02 -1.2027094147656601e-02 0.0000000000000000e+00  2.7685464784617482e-02 -7.9770196815326058e-02 0.0000000000000000e+00  -9.5231099458327528e-02 -3.2494317732308285e-02 0.0000000000000000e+00  -8.4525053840278586e-02 -5.5868407897174246e-02 0.0000000000000000e+00  2.2883629167670814e-02 2.8736404114613132e-02 0.0000000000000000e+00  1.5533743282689671e-03 1.4400782737758405e-01 0.0000000000000000e+00  -6.9818728915361909e-04 1.4406213196745191e-01 0.0000000000000000e+00  1.1848214588463492e-02 -1.0560189229257222e-01 0.0000000000000000e+00  2.9044697987235392e-02 -1.0300318416019311e-01 0.0000000000000000e+00  -2.5964201535722806e-02 -1.0531672935318104e-01 0.0000000000000000e+00  -5.9695162851710080e-02 5.1751007819121286e-02 0.0000000000000000e+00  6.6526659092735030e-02 -8.5756542435389757e-02 0.0000000000000000e+00  4.6308938311647362e-02 1.0075503087973206e-01 0.0000000000000000e+00  -1.4073177593294737e-02 1.0936774827625090e-01 0.0000000000000000e+00  -7.1226962479639000e-02 8.6812389266310602e-02 0.0000000000000000e+00  8.4540099533105331e-02 -4.9552197711699712e-02 0.0000000000000000e+00  9.3660559145585146e-02 6.4737357201489362e-02 0.0000000000000000e+00  4.4375508137601591e-02 -7.3157000694110338e-02 0.0000000000000000e+00  1.5953310086355952e-02 -3.4163798368271596e-02 0.0000000000000000e+00  -1.0762673337718290e-01 4.0922900283837445e-02 0.0000000000000000e+00  -1.4523451929401779e-02 -3.1663228419260475e-02 0.0000000000000000e+00  2.1598573622817967e-02 -1.0258269793885814e-01 0.0000000000000000e+00  -3.5183106557517330e-02 -9.6642316465603811e-02 0.0000000000000000e+00  -6.1931955017874039e-02 -8.8396526133318803e-02 0.0000000000000000e+00  -4.2133772971213033e-02 -7.1700704046759739e-02 0.0000000000000000e+00  4.4322933570305541e-02 -9.6081566588265069e-02 0.0000000000000000e+00  1.1511038443175174e-01 1.3291400444917435e-02 0.0000000000000000e+00  -1.1597364474601676e-01 -3.1669639880482800e-03 0.0000000000000000e+00  -1.0298241003727383e-01 -4.0689221564443045e-02 0.0000000000000000e+00  8.5091891685213430e-02 -5.7864104902729724e-02 0.0000000000000000e+00  -1.1119165126331898e-02 -1.0613854750811698e-01 0.0000000000000000e+00  1.0439131562510881e-01 -3.8736176026825005e-02 0.0000000000000000e+00  5.0936975524615166e-02 5.5980280107579640e-02 0.0000000000000000e+00  -3.7527407542591019e-02 9.1856461834389350e-02 0.0000000000000000e+00  -1.6032762333203499e-03 1.9007057012774717e-01 0.0000000000000000e+00  -8.3689608373914107e-02 -6.1501084528582349e-02 0.0000000000000000e+00  -7.4844425034337234e-02 -6.6838603862524409e-02 0.0000000000000000e+00  -9.1868814877060848e-02 -5.1098966586919656e-03 0.0000000000000000e+00  -4.5767111915623750e-02 -1.7862272527110357e-02 0.0000000000000000e+00  -2.1495149797803634e-02 1.6246379569699310e-01 0.0000000000000000e+00  2.2754211715520979e-02 -3.4788509066778522e-02 0.0000000000000000e+00  -2.9475839472474740e-02 1.4596848045554520e-01 0.0000000000000000e+00  3.9561853310307780e-02 9.1038603992422765e-02 0.0000000000000000e+00  -6.7125095539491877e-02 5.6480416077734415e-02 0.0000000000000000e+00  -7.5364213545122932e-02 7.7860249543029336e-02 0.0000000000000000e+00  1.8409366967601506e-02 1.6359406062055809e-01 0.0000000000000000e+00  3.5826383636974712e-02 1.3877379277772639e-01 0.0000000000000000e+00  6.4636862591380004e-02 6.0308948364348067e-02 0.0000000000000000e+00  5.7480818921353011e-02 1.0357464267463415e-01 0.0000000000000000e+00  -4.3454371588901260e-02 -6.5156710583782973e-02 0.0000000000000000e+00  7.5487765978130783e-02 6.3526042165063676e-02 0.0000000000000000e+00  7.6308143893093570e-03 1.1318876836536597e-01 0.0000000000000000e+00  -5.0043893459016345e-02 1.0258717223190075e-01 0.0000000000000000e+00  -3.0427122436554477e-03 7.5432105795085302e-02 0.0000000000000000e+00  6.1919110320116967e-02 9.5428238132699503e-02 0.0000000000000000e+00  -9.4603935622458890e-02 6.6526576275341087e-02 0.0000000000000000e+00  1.0245401325011394e-01 5.4882793299454731e-02 0.0000000000000000e+00  -7.7627097804668824e-02 -8.0043209032088267e-02 0.0000000000000000e+00  1.1627894421288321e-01 3.9865210181002650e-03 0.0000000000000000e+00  1.1286388541067154e-01 -2.1163003547681573e-02 0.0000000000000000e+00  1.8169999846610298e-02 -8.0655394543025075e-02 0.0000000000000000e+00  -2.1043933552477065e-02 -1.1509977088317476e-01 0.0000000000000000e+00  5.6044693312510198e-02 -7.5528917229456621e-02 0.0000000000000000e+00  2.6904764571522202e-02 -6.9869597011987042e-02 0.0000000000000000e+00  -4.5779528542214405e-02 7.8760554101776015e-02 0.0000000000000000e+00  5.6257671227656778e-02 -1.8239770763594790e-02 0.0000000000000000e+00  2.7408164212870847e-03 -1.4889658289797858e-02 0.0000000000000000e+00  3.1293675353763072e-03 -8.5542354034508675e-02 0.0000000000000000e+00  1.0117201471918491e-01 -4.4934175516751572e-02 0.0000000000000000e+00  1.0456764080302872e-01 6.4525151565956989e-03 0.0000000000000000e+00  8.7813652879611376e-02 -6.4819272498958816e-02 0.0000000000000000e+00  -4.2610722052639313e-02 1.2458173027455616e-01 0.0000000000000000e+00  -6.9916399230737517e-02 -1.0157007529388207e-01 0.0000000000000000e+00  -1.2379239764103499e-02 1.2261132265668830e-01 0.0000000000000000e+00  9.0862075829915540e-02 1.5214305582206950e-02 0.0000000000000000e+00  7.4181322329438568e-02 5.9725419973242135e-02 0.0000000000000000e+00  -2.8636489613254341e-02 -6.8680787618639008e-02 0.0000000000000000e+00  -3.3364609665726798e-03 -4.7180729953741729e-02 0.0000000000000000e+00  2.4093475625321884e-02 -7.8191037907645047e-02 0.0000000000000000e+00  1.0044177364630008e-01 -2.2274088564125917e-02 0.0000000000000000e+00  -5.2123188102192665e-02 1.0074256468676615e-01 0.0000000000000000e+00  1.6083889375739045e-02 8.8837249854565162e-02 0.0000000000000000e+00  -9.4093314585067367e-02 3.5019417202095025e-02 0.0000000000000000e+00  -9.9533852378556539e-02 -4.8517643904504713e-02 0.0000000000000000e+00  5.2849519116103486e-02 -8.8337662886065399e-02 0.0000000000000000e+00  2.8958353765561374e-02 -1.1945374693132667e-01 0.0000000000000000e+00  -2.6039295935241034e-02 -9.1447080975326958e-02 0.0000000000000000e+00  -2.2328197557191808e-02 -7.7358378340484785e-02 0.0000000000000000e+00  -1.7820558602102583e-02 1.2116126659275075e-01 0.0000000000000000e+00  -1.6755722260430300e-02 -1.1176882891069366e-01 0.0000000000000000e+00  -3.9340316530516478e-02 -1.0619186340121406e-01 0.0000000000000000e+00  -1.0549841631886361e-01 -2.3869178260485603e-02 0.0000000000000000e+00  6.0896741616960445e-02 -9.5612858530099598e-02 0.0000000000000000e+00  7.8759645325696112e-02 -8.0861716119248667e-02 0.0000000000000000e+00  9.5618588132192539e-02 -4.8065508535742381e-02 0.0000000000000000e+00  -4.6065166664461157e-02 -7.5047196585373330e-02 0.0000000000000000e+00  -1.1466535989151244e-01 2.2104197429885359e-02 0.0000000000000000e+00  -1.1597147769895565e-01 -7.1098983910775921e-03 0.0000000000000000e+00  8.1903728184549648e-02 -6.4514559174817604e-02 0.0000000000000000e+00  -1.1214807740399330e-01 -2.4128793553575934e-02 0.0000000000000000e+00  -1.0645098391684815e-01 -3.6940018757072909e-02 0.0000000000000000e+00  -1.0531536678690051e-01 -7.4435978323001547e-03 0.0000000000000000e+00  -8.7961151100942117e-02 -5.8239579353821250e-02 0.0000000000000000e+00  -7.9367601086512043e-02 -6.5284765259085734e-02 0.000000