<?xml version="1.0"?>
<VTKFile type="UnstructuredGrid"  version="0.1"  >
<UnstructuredGrid>
<Piece  NumberOfPoints="678" NumberOfCells="1275">
<Points>
<DataArray  type="Float64"  NumberOfComponents="3"  format="ascii">-0.92 -0.1060000000000001 0  -0.9146069205820109 -0.2054694969500266 0  -0.8984909112532797 -0.3037728049941423 0  -0.8718409174881782 -0.3997574077251018 0  -0.8349693860972803 -0.4922979734354436 0  -0.788308602074182 -0.5803095486028603 0  -0.7324056204491921 -0.6627602779782642 0  -0.6679158525692804 -0.7386835021451494 0  -0.5955953819992814 -0.8071890907174255 0  -0.5162921001333917 -0.8674738783043393 0  -0.4309357654438069 -0.9188310808903412 0  -0.3405271029127211 -0.9606585822314482 0  -0.246126071446883 -0.9924659931176852 0  -0.1488394368285434 -1.013880400738204 0  -0.04980779589858388 -1.024650740743034 0  0.04980779589858441 -1.024650740743034 0  0.1488394368285439 -1.013880400738204 0  0.2461260714468835 -0.9924659931176851 0  0.3405271029127212 -0.9606585822314482 0  0.430935765443807 -0.9188310808903412 0  0.5162921001333918 -0.8674738783043393 0  0.5955953819992815 -0.8071890907174255 0  0.6679158525692805 -0.7386835021451493 0  0.7324056204491922 -0.6627602779782641 0  0.7883086020741823 -0.5803095486028598 0  0.8349693860972804 -0.4922979734354435 0  0.8718409174881784 -0.3997574077251013 0  0.8984909112532797 -0.3037728049941422 0  0.9146069205820109 -0.2054694969500261 0  0.92 -0.106 0  0.9146069205820109 -0.00653050304997313 0  0.8984909112532797 0.09177280499414224 0  0.871840917488178 0.1877574077251021 0  0.8349693860972804 0.2802979734354435 0  0.7883086020741823 0.3683095486028598 0  0.7324056204491922 0.4507602779782641 0  0.6679158525692805 0.5266835021451494 0  0.5955953819992812 0.5951890907174258 0  0.5162921001333918 0.6554738783043393 0  0.4309357654438066 0.7068310808903414 0  0.3405271029127212 0.7486585822314482 0  0.2461260714468828 0.7804659931176854 0  0.1488394368285434 0.8018804007382041 0  0.04980779589858417 0.812650740743034 0  -0.04980779589858451 0.812650740743034 0  -0.1488394368285436 0.8018804007382041 0  -0.2461260714468836 0.7804659931176851 0  -0.3405271029127213 0.7486585822314482 0  -0.4309357654438074 0.7068310808903409 0  -0.5162921001333919 0.6554738783043392 0  -0.5955953819992813 0.5951890907174257 0  -0.6679158525692807 0.5266835021451493 0  -0.7324056204491924 0.4507602779782638 0  -0.7883086020741823 0.3683095486028597 0  -0.8349693860972804 0.2802979734354435 0  -0.8718409174881784 0.1877574077251012 0  -0.8984909112532797 0.0917728049941421 0  -0.9146069205820109 -0.006530503049973643 0  -1.807251544744302 0.09970884624411669 0  -1.807251544744302 -0.09970884624411624 0  -1.785313959158928 -0.2979162084081273 0  -1.741705080559743 -0.4925072713700562 0  -1.676954261658791 -0.681119963225582 0  -1.591847489683745 -0.861464781397103 0  -1.487417845557694 -1.031352584093582 0  -1.364932963696183 -1.188721163526399 0  -1.225879644642591 -1.331660278318368 0  -1.071945807323615 -1.45843484124637 0  -0.9050000000000008 -1.567505980849834 0  -0.7270687186218755 -1.657549721245654 0  -0.5403118079130679 -1.727473053401908 0  -0.3469962437819673 -1.776427202786876 0  -0.1494686153049207 -1.803817932342072 0  0.04987335968637249 -1.809312755715162 0  0.2486099396513181 -1.792844973193881 0  0.4443287317248458 -1.754614481350188 0  0.6346539748988848 -1.695085346566669 0  0.8172753785427106 -1.614980171899293 0  0.9899761662015921 -1.515271325655177 0  1.150659984260042 -1.397169138158541 0  1.297376348834896 -1.262107209980132 0  1.428344322007472 -1.111725009968299 0  1.541974129997373 -0.9478479743180581 0  1.636886460862615 -0.7724653482484911 0  1.711929207478149 -0.5877060392604776 0  1.766191452555658 -0.3958127750835407 0  1.799014525945489 -0.199114879999284 0  1.81 0 0  1.799014525945489 0.1991148799992835 0  1.766191452555659 0.3958127750835402 0  1.711929207478149 0.587706039260477 0  1.636886460862615 0.7724653482484907 0  1.541974129997372 0.9478479743180589 0  1.428344322007473 1.111725009968299 0  1.297376348834897 1.262107209980132 0  1.150659984260042 1.397169138158541 0  0.9899761662015928 1.515271325655177 0  0.8172753785427099 1.614980171899293 0  0.6346539748988856 1.695085346566669 0  0.4443287317248466 1.754614481350188 0  0.2486099396513185 1.792844973193881 0  0.04987335968637333 1.809312755715162 0  -0.149468615304921 1.803817932342072 0  -0.3469962437819665 1.776427202786876 0  -0.5403118079130671 1.727473053401908 0  -0.7270687186218747 1.657549721245654 0  -0.9049999999999996 1.567505980849834 0  -1.071945807323614 1.458434841246371 0  -1.225879644642592 1.331660278318368 0  -1.364932963696182 1.1887211635264 0  -1.487417845557694 1.031352584093582 0  -1.591847489683745 0.8614647813971034 0  -1.676954261658791 0.6811199632255824 0  -1.741705080559744 0.4925072713700558 0  -1.785313959158928 0.2979162084081286 0  1.110223024625157e-16 -0.1059999999999998 0  -0.180660536071035 1.302829381656016 0  0.3163933162449455 1.273406891537965 0  -0.7274747927499465 1.103072510992365 0  0.7668364319454705 1.077823660517286 0  -1.140612880082373 0.7011321311006735 0  1.15204709622542 0.6751073126858806 0  -1.326238937308961 0.2622284283593587 0  -0.04980779589858338 -0.5639751202589069 0  -0.4279569268169092 -0.2765136243760651 0  0.3710174409347961 -0.3780466006028403 0  -0.3168063749138994 0.2284484237103671 0  0.1470944305169233 0.3305607126383884 0  1.329789481248916 0.2510750958469029 0  1.356984233785627 -0.2264406188755037 0  -1.344687954030093 -0.3013516286334114 0  1.225212600109606 -0.6630519013653071 0  -1.184289764838506 -0.7338706957894974 0  -0.9116105296712 -1.068375535432857 0  0.9533553234634519 -1.035619949256747 0  0.5691051411570243 -1.29742903789385 0  -0.4976469454584022 -1.329155852438481 0  0.1418884041045828 -1.410642330800017 0  0.4823827027129562 0.02793289813082289 0  -0.517496477284365 1.382171593086384 0  -0.1736852328031637 -1.336982765725693 0  -1.06128568764013 1.032889018957969 0  0.6226765985950153 1.362306617392624 0  1.137097213629667 0.9902988342871867 0  -1.49480723298216 -0.01434541805239847 0  0.1253390355386239 1.512617210414379 0  -0.3662677190079856 -0.5878169445648336 0  -0.597253964880412 -0.008085182471023772 0  -0.1301058948207577 0.485077039132798 0  0.258274012999259 -0.664250130491329 0  -0.4044973060934949 1.067257097364893 0  -1.20507406232045 -0.0455630238533693 0  -0.8379427581630978 0.8033239508047627 0  1.417251447190325 0.5370051072613894 0  0.8558702905527744 0.7773961631563977 0  0.4464573540189063 0.3251810603581466 0  -1.403654963507972 0.5536754533247148 0  1.515832995316406 0.02213813002658903 0  -1.665334536937735e-16 1.088501716486084 0  0.5023240650250095 0.9797556731809147 0  0.6261565420388795 -0.2798515081224722 0  -1.086051021522453 0.4193508460312063 0  -0.337323374485944 -0.03174951051077646 0  1.447935733274198 -0.4920806058474862 0  1.090309308737587 0.3999601537282032 0  -1.416319472826186 -0.5739170162216268 0  -0.3061456526509878 1.524765741065996 0  0.2667779678707116 -0.1311882149467113 0  0.2503480813782793 1.031342799859381 0  0.9909166899399342 1.198832877115805 0  -0.8606412448913292 -1.317309491463499 0  0.4152965280106574 1.504722619677965 0  -0.8611675852027928 1.318115115284282 0  -0.59924563841203 0.8899539986220496 0  1.172612916934034 -0.04242277500646888 0  1.212400155185907 -0.9391719518785785 0  -0.5599010287746745 0.2736223169948178 0  -1.171837259291678 -1.002112515326005 0  -0.0605618136758327 -1.56516028902019 0  -0.6448567802430724 -1.103883480536935 0  1.131429331357569 -0.4201398075152584 0  0.9789004143956873 -0.7687907182004053 0  -1.132873314010914 -0.4688019957296546 0  0.8421796310698241 -1.285331756504514 0  -1.349164263273378 0.8293281898109197 0  0.2539196971769283 0.1118641899301455 0  1.32614036177891 0.8413150544235809 0  -1.543275136937588 0.360583265310003 0  -0.221488295658734 -0.3973628701983343 0  -0.07867723908908264 0.2514343006670486 0  0.3928370496184521 -1.494941322596667 0  -0.3403071753608528 -1.525167290559759 0  1.567635711895808 0.2542968858790006 0  -0.1943974661185023 -0.756947846719636 0  -0.5752139617121357 -0.4674586729263178 0  -0.6661776768635601 -0.2391569631333459 0  0.04903215396788697 -0.7837103137845316 0  -0.4015742910229592 0.448956724762208 0  0.3000554191119151 0.5103675782136403 0  0.6914939098114664 -1.064174362137824 0  0.5261183541221597 -0.5528889579836607 0  0.002807811077447528 -0.3380013901087423 0  -1.116298842448983 0.167128688149273 0  -0.9402488414190237 -0.8133279442972272 0  -0.9226254945262784 0.5858971569099978 0  1.117161469402463 0.1761082968049126 0  0.9519001488772302 0.5755165077316456 0  0.3236527702326141 -1.233870547815484 0  1.564649751078691 -0.303729053546067 0  0.09364789882734784 1.291404409084266 0  -1.564485753833326 -0.2335541612842648 0  0.6573811395153707 0.1559245855627656 0  0.6846858814530241 -0.06503858940047723 0  -0.09092935101141271 1.500007795278837 0  0.08006515230379055 0.5812288015039784 0  -1.128526174301892 -0.2502825290187592 0  -1.373477725435813 -0.8442736194462152 0  1.434429418407079 -0.705041618360489 0  -0.3322202435368107 -1.190443218923054 0  0.1445885266723954 -0.4901258994196178 0  1.136627031910762 -1.131758475779767 0  0.8104771788712131 -0.8873040014590003 0  -0.7578094838918669 -0.9326927434902834 0  -1.080199650265896 -1.186345198874394 0  0.6858790740015732 0.8904247006035613 0  -0.1986684358188678 1.009712111684959 0  0.5944721701660751 -1.497478210543889 0  0.4858264313722749 -1.113310169618239 0  0.8405518656637224 1.356606582217884 0  0.507091943124003 1.188462914990368 0  -0.6830834775886592 -1.443942598190219 0  0.1394450719913443 -1.617325698192132 0  0.01611320953713974 -1.236667771980638 0  -0.9947370198353058 -0.6176811374626029 0  0.4614412294659075 -0.169321782678154 0  -0.1829776834382112 0.08698796424090094 0  -0.1948304588610174 -0.1877606832684592 0  1.048703403858002 -0.5916384786986939 0  0.94685696388
[...]
<PointData  Vectors="f_119-0"> 
<DataArray  type="Float64"  Name="f_119-0"  NumberOfComponents="3" format="ascii">-1.8939819095696458e-02 -1.7645436008582430e-02 0.0000000000000000e+00  -1.7633029684094772e-02 -1.9151681464278026e-02 0.0000000000000000e+00  -1.9423046070189021e-02 -1.7667969846578469e-02 0.0000000000000000e+00  -1.8751791923230770e-02 -2.1695787697370558e-02 0.0000000000000000e+00  -1.6573263353425384e-02 -2.4773679952303326e-02 0.0000000000000000e+00  -1.6262393527601476e-02 -2.5180772708712901e-02 0.0000000000000000e+00  -1.6386383031497607e-02 -2.5487466153877768e-02 0.0000000000000000e+00  -1.4628305369546561e-02 -2.8578604585663917e-02 0.0000000000000000e+00  -1.1651126739435382e-02 -3.0391099021770267e-02 0.0000000000000000e+00  -1.2712819351358210e-02 -3.1157156637566661e-02 0.0000000000000000e+00  -9.2364279687075449e-03 -3.2681479171325807e-02 0.0000000000000000e+00  -5.4617352501184040e-03 -3.3764769245486090e-02 0.0000000000000000e+00  -5.4501282123145421e-03 -3.3287187051707134e-02 0.0000000000000000e+00  -3.9505454306357907e-03 -3.2681583431774443e-02 0.0000000000000000e+00  8.2164439675485223e-04 -3.2206575088545741e-02 0.0000000000000000e+00  1.0525365116925978e-03 -3.4223286992218743e-02 0.0000000000000000e+00  3.0312858068777615e-03 -3.5177966018223983e-02 0.0000000000000000e+00  6.5199226092996446e-03 -3.5069864988957221e-02 0.0000000000000000e+00  1.0240949751123406e-02 -3.3265488355294082e-02 0.0000000000000000e+00  6.5105828000130055e-03 -3.1972508050154523e-02 0.0000000000000000e+00  1.0976557784728114e-02 -3.0633806557906037e-02 0.0000000000000000e+00  1.5451640541875755e-02 -2.8622859426957865e-02 0.0000000000000000e+00  1.5030671513825849e-02 -2.7161066285742282e-02 0.0000000000000000e+00  1.5413676405267666e-02 -2.7287873004730429e-02 0.0000000000000000e+00  1.7033061301910096e-02 -2.6328352134954418e-02 0.0000000000000000e+00  1.9968764134511020e-02 -2.1569143536347393e-02 0.0000000000000000e+00  2.0176404141059548e-02 -2.1641534452093551e-02 0.0000000000000000e+00  1.9078423182182905e-02 -2.0058519227906000e-02 0.0000000000000000e+00  1.7855999007910371e-02 -1.4648222305061234e-02 0.0000000000000000e+00  1.6443483820086952e-02 -1.1705542087126299e-02 0.0000000000000000e+00  1.7778809866632644e-02 -1.1336371037528402e-02 0.0000000000000000e+00  1.7484090009458421e-02 -9.8932074017166593e-03 0.0000000000000000e+00  1.8355374716941757e-02 -1.0294165119471840e-02 0.0000000000000000e+00  1.7895285980967322e-02 -9.3744170125977123e-03 0.0000000000000000e+00  1.7473245249504537e-02 -6.3377509587349747e-03 0.0000000000000000e+00  1.5874662398817217e-02 -3.1756889252782527e-03 0.0000000000000000e+00  1.5397972191081367e-02 -3.7976458023013760e-03 0.0000000000000000e+00  1.3653169037617499e-02 -1.3578598683136284e-03 0.0000000000000000e+00  9.6782836016743746e-03 8.4586556103392137e-04 0.0000000000000000e+00  7.4427492866378413e-03 7.1979592764809025e-04 0.0000000000000000e+00  7.1262052729061274e-03 2.1673670265396241e-03 0.0000000000000000e+00  4.0547869406351864e-03 4.4056957506946222e-03 0.0000000000000000e+00  2.5322772350411570e-03 3.0026287634836650e-03 0.0000000000000000e+00  2.4839141438244847e-03 3.8488445844820944e-03 0.0000000000000000e+00  -8.9146343392832470e-05 3.3162542434533589e-03 0.0000000000000000e+00  -4.9563020614806202e-03 3.4077369804293542e-03 0.0000000000000000e+00  -2.9065761455979639e-03 3.2756174160015403e-03 0.0000000000000000e+00  -8.3887472017018100e-03 2.2600042198605229e-03 0.0000000000000000e+00  -1.2014583185647128e-02 9.7333010609309655e-04 0.0000000000000000e+00  -1.1631815020008648e-02 -2.1275075520173911e-05 0.0000000000000000e+00  -9.6321086656547678e-03 4.2049782742078291e-04 0.0000000000000000e+00  -1.4295165438815868e-02 -4.5102948101442527e-03 0.0000000000000000e+00  -1.4328121072697576e-02 -5.1387457555208890e-03 0.0000000000000000e+00  -1.3870985455217156e-02 -2.3127791785296664e-03 0.0000000000000000e+00  -1.7200564593457292e-02 -4.6356927361367569e-03 0.0000000000000000e+00  -1.9775408486890880e-02 -1.0978752207888841e-02 0.0000000000000000e+00  -1.9701308711569592e-02 -1.0909756550284793e-02 0.0000000000000000e+00  -1.9301228794112231e-02 -1.2647163487016869e-02 0.0000000000000000e+00  -9.8385789368966720e-02 4.3345834175352160e-03 0.0000000000000000e+00  -9.8381310239293335e-02 -4.3418727401728311e-03 0.0000000000000000e+00  -9.6994994519696093e-02 -1.7104069322698662e-02 0.0000000000000000e+00  -9.4843180232492094e-02 -2.6701963820217570e-02 0.0000000000000000e+00  -9.1285506325100574e-02 -3.7095904581933944e-02 0.0000000000000000e+00  -8.6656246915955845e-02 -4.6891142348228276e-02 0.0000000000000000e+00  -8.0986215185282512e-02 -5.6137583564414111e-02 0.0000000000000000e+00  -7.4223494141294893e-02 -6.4796432616665636e-02 0.0000000000000000e+00  -6.7387905061144032e-02 -7.1827473717352458e-02 0.0000000000000000e+00  -5.8278863204163076e-02 -7.9264917787906036e-02 0.0000000000000000e+00  -4.9197037820869143e-02 -8.5201993045247323e-02 0.0000000000000000e+00  -3.9506264708441034e-02 -9.0107760854657604e-02 0.0000000000000000e+00  -2.8527915011743114e-02 -9.4267198553714376e-02 0.0000000000000000e+00  -1.8886834884327356e-02 -9.6693683121781782e-02 0.0000000000000000e+00  -9.0438355613896119e-03 -9.8074257376165291e-02 0.0000000000000000e+00  2.7012244795118698e-03 -9.8313773866461104e-02 0.0000000000000000e+00  1.3544354827243994e-02 -9.7451304202157418e-02 0.0000000000000000e+00  2.5081242481168844e-02 -9.5239923867388457e-02 0.0000000000000000e+00  3.4435749494499936e-02 -9.2315412662931640e-02 0.0000000000000000e+00  4.4509199153175319e-02 -8.7913520884763119e-02 0.0000000000000000e+00  5.3890532416678738e-02 -8.2487358927434973e-02 0.0000000000000000e+00  6.2641859060326835e-02 -7.6062234593444258e-02 0.0000000000000000e+00  7.0621949621359273e-02 -6.8715664388950437e-02 0.0000000000000000e+00  7.7818041827844561e-02 -6.0427569777599791e-02 0.0000000000000000e+00  8.3430576026695749e-02 -5.2354500165279073e-02 0.0000000000000000e+00  8.9455418635299808e-02 -4.1210876158681332e-02 0.0000000000000000e+00  9.3180102207735913e-02 -3.1989041269929595e-02 0.0000000000000000e+00  9.5903510764837177e-02 -2.2430624535365706e-02 0.0000000000000000e+00  9.7759890607571481e-02 -1.0810680634006404e-02 0.0000000000000000e+00  9.8472587981406748e-02 1.0976383137435467e-03 0.0000000000000000e+00  9.7996072645562926e-02 9.7493087316182329e-03 0.0000000000000000e+00  9.5904150760865808e-02 2.2422512332038881e-02 0.0000000000000000e+00  9.3181151474110380e-02 3.1984517653746637e-02 0.0000000000000000e+00  8.9461587225146355e-02 4.1216496466385116e-02 0.0000000000000000e+00  8.3820828140804257e-02 5.1509582501770762e-02 0.0000000000000000e+00  7.7645454984986845e-02 6.0444788549055523e-02 0.0000000000000000e+00  6.9963025732099074e-02 6.9331906205530688e-02 0.0000000000000000e+00  6.2629732888615799e-02 7.6048602933542708e-02 0.0000000000000000e+00  5.4636229920603914e-02 8.1950571047663429e-02 0.0000000000000000e+00  4.4410076743879798e-02 8.7749426219245863e-02 0.0000000000000000e+00  3.3666901037587987e-02 9.2555890804375762e-02 0.0000000000000000e+00  2.4299752151499900e-02 9.5483040143354833e-02 0.0000000000000000e+00  1.3534666816969207e-02 9.7609366787242760e-02 0.0000000000000000e+00  2.5992250098595213e-03 9.8492484820317153e-02 0.0000000000000000e+00  -7.2170074905536438e-03 9.8225339397653308e-02 0.0000000000000000e+00  -1.9789943293509863e-02 9.6479831642812194e-02 0.0000000000000000e+00  -2.9289597559430450e-02 9.4076135636856129e-02 0.0000000000000000e+00  -3.9701285283435139e-02 9.0175986159151900e-02 0.0000000000000000e+00  -4.8428066976680242e-02 8.5759460593599263e-02 0.0000000000000000e+00  -5.8249194212676006e-02 7.9248023099846923e-02 0.0000000000000000e+00  -6.7383517406153323e-02 7.1836687894834703e-02 0.0000000000000000e+00  -7.4292756755702807e-02 6.4702237816833458e-02 0.0000000000000000e+00  -8.0417588167930279e-02 5.6865061461432484e-02 0.0000000000000000e+00  -8.7056163487190960e-02 4.6055734413170457e-02 0.0000000000000000e+00  -9.1237293591093491e-02 3.7198340137497204e-02 0.0000000000000000e+00  -9.4845950743532720e-02 2.6687892257239630e-02 0.0000000000000000e+00  -9.6988565326352416e-02 1.7115455775927855e-02 0.0000000000000000e+00  3.7415186648976230e-04 -1.5743542823575495e-02 0.0000000000000000e+00  -9.4268132437588126e-03 5.9308837585306744e-02 0.0000000000000000e+00  1.5763175650765182e-02 5.8435972335791127e-02 0.0000000000000000e+00  -3.6439279671969124e-02 4.9449405850103503e-02 0.0000000000000000e+00  3.8434010456340310e-02 4.8585057996649895e-02 0.0000000000000000e+00  -5.7125814217893672e-02 2.9492402047952782e-02 0.0000000000000000e+00  5.7038298764353179e-02 2.7441898985193332e-02 0.0000000000000000e+00  -6.5057453333769638e-02 6.8121712185909618e-03 0.0000000000000000e+00  -1.1928414743023149e-03 -2.3724441576230233e-02 0.0000000000000000e+00  -6.6787720350239416e-03 -1.7878151116045599e-02 0.0000000000000000e+00  5.7679178411644784e-03 -2.0810956114891303e-02 0.0000000000000000e+00  -5.0512050372817745e-03 -1.0352695647467788e-02 0.0000000000000000e+00  2.6912648300430825e-03 -7.7825247656889236e-03 0.0000000000000000e+00  6.5472245943122093e-02 6.3789288611034020e-03 0.0000000000000000e+00  6.6949574575785611e-02 -1.7050923014163114e-02 0.0000000000000000e+00  -6.5832495161810611e-02 -2.1263622979757608e-02 0.0000000000000000e+00  5.9993932384450194e-02 -3.8408225899983162e-02 0.0000000000000000e+00  -5.7370908812153731e-02 -4.1749786997310252e-02 0.0000000000000000e+00  -4.3424992456295261e-02 -5.7912534894539840e-02 0.0000000000000000e+00  4.5749473952525252e-02 -5.6689098221031929e-02 0.0000000000000000e+00  2.7212487336513699e-02 -6.8191841132893963e-02 0.0000000000000000e+00  -2.2985628855256058e-02 -7.0175754604095392e-02 0.0000000000000000e+00  5.7688587632597531e-03 -7.3695773428017905e-02 0.0000000000000000e+00  7.6214222930639413e-03 -1.3192643293336543e-02 0.0000000000000000e+00  -2.9590912142058359e-02 7.5397348101471945e-02 0.0000000000000000e+00  -7.6249021810046291e-03 -6.4084234046214800e-02 0.0000000000000000e+00  -6.0283865438385716e-02 5.4917216821227709e-02 0.0000000000000000e+00  3.5979746683175037e-02 7.5346912940661911e-02 0.0000000000000000e+00  6.5571611440067443e-02 5.3167457190976861e-02 0.0000000000000000e+00  -8.2892244342115895e-02 -5.0617733408120759e-03 0.0000000000000000e+00  6.9817199570618420e-03 8.5243028167999557e-02 0.0000000000000000e+00  -7.3232249157622739e-03 -2.3506894821706956e-02 0.0000000000000000e+00  -1.0709373104651409e-02 -1.3596256213600716e-02 0.0000000000000000e+00  -2.3215691953243859e-03 -5.4986300381762686e-03 0.0000000000000000e+00  4.6273515648629386e-03 -2.5589250544513668e-02 0.0000000000000000e+00  -1.5232501263991937e-02 3.2839578253710928e-02 0.0000000000000000e+00  -4.6698607960397799e-02 -9.3817492355983897e-03 0.0000000000000000e+00  -3.1170076133560504e-02 2.2844796141999347e-02 0.0000000000000000e+00  8.0824016034587540e-02 2.6819214891942417e-02 0.0000000000000000e+00  3.2337838125431506e-02 2.0808750556461517e-02 0.0000000000000000e+00  8.3572548370695662e-03 -7.8150243063747436e-03 0.0000000000000000e+00  -7.9901798275486810e-02 2.7605725024206589e-02 0.0000000000000000e+00  8.4858686832624403e-02 -2.4329718078086081e-03 0.0000000000000000e+00  1.7487554327741577e-04 2.8972911482374821e-02 0.0000000000000000e+00  1.7404636635778813e-02 2.5746646347032404e-02 0.0000000000000000e+00  1.1897839064643543e-02 -1.8423764571154695e-02 0.0000000000000000e+00  -3.9868386156799919e-02 7.5191044757143954e-03 0.0000000000000000e+00  -5.1518291621145493e-03 -1.4431914917258639e-02 0.0000000000000000e+00  8.0791724313784383e-02 -3.1211754773833065e-02 0.0000000000000000e+00  3.9797468963191286e-02 6.9080465432663834e-03 0.0000000000000000e+00  -7.8242516153912672e-02 -3.5808264362159385e-02 0.0000000000000000e+00  -1.8123531253600975e-02 8.6907512908734885e-02 0.0000000000000000e+00  4.1797931458275829e-03 -1.6083159437656033e-02 0.0000000000000000e+00  8.2592029902217746e-03 2.3988466601980188e-02 0.0000000000000000e+00  5.8197194732358182e-02 6.7307267684236782e-02 0.0000000000000000e+00  -4.7415399638129324e-02 -7.6488026273199297e-02 0.0000000000000000e+00  2.4355604513326676e-02 8.6008376364656428e-02 0.0000000000000000e+00  -5.0697507091501205e-02 7.4896506830224446e-02 0.0000000000000000e+00  -1.9269203584326766e-02 1.9406701440009850e-02 0.0000000000000000e+00  4.0140524806641757e-02 -1.0289447072505191e-02 0.0000000000000000e+00  6.6403685669597590e-02 -5.5950700033689280e-02 0.0000000000000000e+00  -1.1218457949530376e-02 -1.0485473831772611e-02 0.0000000000000000e+00  -6.4528486205617658e-02 -5.9305314775131839e-02 0.0000000000000000e+00  -3.5621969666452444e-03 -8.9424561484343926e-02 0.0000000000000000e+00  -2.4162573704799524e-02 -5.0973662054567340e-02 0.0000000000000000e+00  4.0045805997104535e-02 -2.3262479259046228e-02 0.0000000000000000e+00  3.7763187892107787e-02 -3.7156636971290444e-02 0.0000000000000000e+00  -4.1771192508937016e-02 -2.7087544238503642e-02 0.0000000000000000e+00  4.5231883321147817e-02 -7.3862138199458263e-02 0.0000000000000000e+00  -7.8878696806216980e-02 4.5757987855804379e-02 0.0000000000000000e+00  4.4690030198612238e-03 -1.1294110200910193e-02 0.0000000000000000e+00  7.7376090243862897e-02 4.5987797120421586e-02 0.0000000000000000e+00  -8.9331476625872930e-02 1.7980622015493691e-02 0.0000000000000000e+00  -3.4809585990148995e-03 -2.0806856239547068e-02 0.0000000000000000e+00  -1.0098089913596685e-03 -9.4431621100264027e-03 0.0000000000000000e+00  2.1255394734875765e-02 -8.5236486993926566e-02 0.0000000000000000e+00  -1.8646552022450941e-02 -8.7068891907360668e-02 0.0000000000000000e+00  9.0585377415131021e-02 1.1850431798236855e-02 0.0000000000000000e+00  -3.3688340245717494e-03 -2.7908585021228966e-02 0.0000000000000000e+00  -1.0494518415567493e-02 -2.0463563496485752e-02 0.0000000000000000e+00  -1.2511595257859869e-02 -1.7462359423803930e-02 0.0000000000000000e+00  -2.9839480538970708e-04 -2.8294133458230071e-02 0.0000000000000000e+00  -6.5522252580196508e-03 -6.5856424179882179e-03 0.0000000000000000e+00  4.5396474294831218e-03 -5.1192006255080889e-03 0.0000000000000000e+00  2.4383492730416467e-02 -4.9043943424712022e-02 0.0000000000000000e+00  1.2001338732975443e-02 -2.2326292915612583e-02 0.0000000000000000e+00  2.2535306098595779e-04 -2.0078664861837157e-02 0.0000000000000000e+00  -3.4857578242097086e-02 -3.6593475137926988e-03 0.0000000000000000e+00  -3.5028658103057539e-02 -3.9642292566941441e-02 0.0000000000000000e+00  -3.0416054663936622e-02 9.5529766280479135e-03 0.0000000000000000e+00  3.6049084577746346e-02 -3.0589263761596486e-03 0.0000000000000000e+00  3.1964078869467651e-02 1.0665357664695826e-02 0.0000000000000000e+00  1.0930952968021558e-02 -5.5719977404440652e-02 0.0000000000000000e+00  8.9652495693663917e-02 -1.9977660332894425e-02 0.0000000000000000e+00  4.1524171041111549e-03 5.7859643245175799e-02 0.0000000000000000e+00  -8.9466150795854890e-02 -1.6586668507159591e-02 0.0000000000000000e+00  1.1330531941406659e-02 -1.1947391750199637e-02 0.0000000000000000e+00  1.0212221642544305e-02 -1.5776248015319971e-02 0.0000000000000000e+00  -5.6247811441486060e-03 8.3625826075937437e-02 0.0000000000000000e+00  -1.1694917277612438e-03 -3.6461684567539103e-03 0.0000000000000000e+00  -3.7352421067755763e-02 -1.6224248581591137e-02 0.0000000000000000e+00  -7.7923245240299019e-02 -5.0586897989758274e-02 0.0000000000000000e+00  8.1509251430968654e-02 -4.3064247503836750e-02 0.0000000000000000e+00  -1.0209462725447151e-02 -5.0666334403630837e-02 0.0000000000000000e+00  2.5803132780833093e-03 -2.2771802090388159e-02 0.0000000000000000e+00  6.3702913847732634e-02 -6.6975957948482767e-02 0.0000000000000000e+00  2.7828053456076002e-02 -3.9112063254078511e-02 0.0000000000000000e+00  -2.5263557481553785e-02 -3.9707291839035513e-02 0.0000000000000000e+00  -6.0597240429859249e-02 -6.9905096923092533e-02 0.0000000000000000e+00  2.5672018789474654e-02 2.4447245304539247e-02 0.0000000000000000e+00  -5.8569392773230450e-03 1.9183173584660627e-02 0.0000000000000000e+00  3.3219674284270730e-02 -8.6672444417265584e-02 0.0000000000000000e+00  1.4575207801982593e-02 -4.6142131280993731e-02 0.0000000000000000e+00  4.9555016700282124e-02 7.7552434633129969e-02 0.0000000000000000e+00  2.4621300039125479e-02 5.1954674984628246e-02 0.0000000000000000e+00  -3.7845641461793131e-02 -8.3613467806506442e-02 0.0000000000000000e+00  7.5998862175821399e-03 -9.3192522884934223e-02 0.0000000000000000e+00  6.0076482633632961e-05 -5.0221628941792981e-02 0.0000000000000000e+00  -3.0892384291746507e-02 -3.0411109880040442e-02 0.0000000000000000e+00  6.7572759675341215e-03 -1.6726914658892377e-02 0.0000000000000000e+00  -2.4663629135638515e-03 -1.2446972574433876e-02 0.0000000000000000e+00  -2.7393162299814890e-03 -1.7171835269680739e-02 0.0000000000000000e+00  3.7006298631503634e-02 -2.9706594104766421e-02 0.0000000000000000e+00  5.0785825745636760e-02 4.8935955068313920e-02 0.0000000000000000e+00  3.5034433888620035e-02 -1.6275085521704091e-02 0.0000000000000000e+00  3.1045047075048101e-03 -1.9503237077296651e-02 0.0000000000000000e+00  -9.2981572558517245e-02 6.7850039911551011e-03 0.0000000000000000e+00  9.1345139256673410e-02 2.3412687527457763e-02 0.0000000000000000e+00  -8.8678467053952645e-02 -2.7520557822051702e-02 0.0000000000000000e+00  -7.6032074807381922e-03 -1.1979878294896005e-02 0.0000000000000000e+00  5.7408158618550448e-04 -1.2268381506915971e-02 0.0000000000000000e+00  -6.1500209461617585e-02 7.0361150216707219e-02 0.0000000000000000e+00  -4.3384127323846042e-02 8.3858042936705124e-02 0.0000000000000000e+00  -8.6561158928944157e-02 3.8949608532320899e-02 0.0000000000000000e+00  -7.5501301120011549e-02 5.6834899310750170e-02 0.0000000000000000e+00  9.3360570214986990e-02 -9.4883404827716747e-03 0.0000000000000000e+00  6.0830738208320287e-02 1.9119923372194016e-02 0.0000000000000000e+00  5.1800776825928256e-02 3.4858456621935797e-02 0.0000000000000000e+00  -2.8593987131436367e-02 -8.6851615611452854e-02 0.0000000000000000e+00  -3.8225787254713685e-02 6.8381155859322140e-02 0.0000000000000000e+00  6.2447068651588694e-02 -2.9716608120173293e-03 0.0000000000000000e+00  -6.6089906338471310e-02 4.5483676112281983e-02 0.0000000000000000e+00  -2.6954510609961915e-02 4.9182814468270220e-02 0.0000000000000000e+00  -1.8820299834369159e-02 6.9136743190257352e-02 0.0000000000000000e+00  -3.3894333316830068e-02 8.8606886897866985e-02 0.0000000000000000e+00  -5.0571998383526481e-02 5.8475959479625382e-02 0.0000000000000000e+00  -4.8605789901547770e-02 3.3258705337368202e-02 0.0000000000000000e+00  -6.2270878661010595e-02 1.4792156799766771e-02 0.0000000000000000e+00  -9.0653662256216405e-02 2.8512055567940064e-02 0.0000000000000000e+00  -3.2740589224711084e-02 -6.8881076705980940e-02 0.0000000000000000e+00  -2.8654671821415241e-03 9.5223290759724216e-02 0.0000000000000000e+00  -6.9205258988441556e-02 6.4669314866929006e-02 0.0000000000000000e+00  -1.2957783513134537e-02 -9.4399031977267733e-02 0.0000000000000000e+00  2.5807793411963291e-03 -1.3896095022489891e-02 0.0000000000000000e+00  -1.2015233709713420e-02 -2.5389206697148593e-02 0.0000000000000000e+00  -7.4612034436128448e-03 -2.6864820272168091e-02 0.0000000000000000e+00  -1.5207674419898620e-02 -1.0008241715258671e-02 0.0000000000000000e+00  -1.4150503038960247e-02 -1.4639426053598940e-02 0.0000000000000000e+00  -6.8721035697224438e-03 -3.0816416414342143e-03 0.0000000000000000e+00  -8.4556412261712469e-02 -4.3171373594464615e-02 0.0000000000000000e+00  9.5234418532164369e-02 3.5416782768045809e-03 0.0000000000000000e+00  3.4274555648312867e-02 8.8078511096125231e-02 0.0000000000000000e+00  1.5821632695327593e-02 9.3013662500078434e-02 0.0000000000000000e+00  5.3742837447669382e-02 -7.0065068592588500e-02 0.0000000000000000e+00  1.6911838752106941e-02 -9.389749492975