<?xml version="1.0"?>
<VTKFile type="UnstructuredGrid"  version="0.1"  >
<UnstructuredGrid>
<Piece  NumberOfPoints="939" NumberOfCells="1746">
<Points>
<DataArray  type="Float64"  NumberOfComponents="3"  format="ascii">-0.9876190267304649 -0.003262748294295927 0  -0.9752406599285054 -0.1130253462230723 0  -0.9498589265383072 -0.2211672149278056 0  -0.9121607946908734 -0.3252106239745827 0  -0.8615901297155416 -0.4247328925670776 0  -0.8010484008241551 -0.5160947879682107 0  -0.733417694928442 -0.59647547819741 0  -0.6605638247628034 -0.666377312459468 0  -0.584070084218164 -0.726186341123718 0  -0.5038648363306765 -0.7770685764094183 0  -0.420415719726373 -0.8195605398141814 0  -0.3347874705807204 -0.8536061980795638 0  -0.2467018915323794 -0.8797909846897682 0  -0.1555579635507099 -0.8978984434307064 0  -0.06341211243511052 -0.9078431865338801 0  0.02953379779378079 -0.909492574809888 0  0.1224558187664734 -0.9023977441667995 0  0.2135741398849738 -0.8872354825534532 0  0.3029585647054819 -0.8637680576656649 0  0.390131818905293 -0.8322908427796968 0  0.474792815883486 -0.792535367152958 0  0.5559977500685784 -0.744642115096754 0  0.6330029783469829 -0.6885519552424479 0  0.706991346931012 -0.6229084924600204 0  0.7770930326752773 -0.5460331712478678 0  0.8406954027204179 -0.4583448305848334 0  0.8951939310318988 -0.3611880290319127 0  0.9376332754491647 -0.2584300062476083 0  0.9674490249026947 -0.1521043672918026 0  0.9845545091908882 -0.0423911003834721 0  0.9884084735169801 0.06851816492761453 0  0.979055335859037 0.1783322221570683 0  0.9570226456501864 0.285848688356056 0  0.9223146720157022 0.3907761898291615 0  0.8763135302127021 0.4900009615025982 0  0.8183570448636336 0.5841095743153482 0  0.7504789830575703 0.6705551411807168 0  0.6731588017772081 0.7489090316551982 0  0.5876325678373836 0.8180167837104181 0  0.494535870328816 0.8774662249273091 0  0.3957852321933697 0.9260829811128468 0  0.2923759575069834 0.9638562185618093 0  0.1845811632785306 0.9900135573693292 0  0.07512727951907969 1.004157675376861 0  -0.03508605034220318 1.006187468548687 0  -0.1454057436549298 0.9963205033335393 0  -0.2542467714413812 0.9744669966379985 0  -0.3589304710869508 0.9409152673980588 0  -0.4593605042013625 0.8962727725263131 0  -0.5553170011743945 0.8401244948876387 0  -0.6432206259712684 0.7745700058353263 0  -0.723945821636237 0.6992644056768815 0  -0.79513823473823 0.615864968213113 0  -0.8570343989941728 0.5237802551573851 0  -0.9071421824064194 0.4267375637512025 0  -0.9460511017137212 0.3245212640206996 0  -0.9728621028975162 0.217738259276495 0  -0.9868269161855158 0.1083218885347979 0  -2.128403911445559 0.1029511543507338 0  -2.128386675822318 -0.10295135117195 0  -2.108524920788129 -0.3078989270439886 0  -2.06896666312643 -0.5099553250132214 0  -2.010090389256768 -0.7072589490440337 0  -1.932447433765461 -0.8979559462799588 0  -1.836767099962935 -1.08027857450502 0  -1.72392422385694 -1.252503980944883 0  -1.594999613159067 -1.413039465923693 0  -1.451161891878931 -1.560372803042953 0  -1.293797124144058 -1.693163267669058 0  -1.124352484105744 -1.810124100338947 0  -0.9443915611915571 -1.910195503847434 0  -0.7556334579168749 -1.992419464703801 0  -0.5597976774453722 -2.056037960948372 0  -0.3587397507797783 -2.100483818997444 0  -0.1543532567200161 -2.125300297228744 0  0.05148330493921757 -2.130276366769914 0  0.25685083320817 -2.115347454600763 0  0.4598172592027757 -2.08069332607227 0  0.6584829568545824 -2.026603791541971 0  0.8510003400084007 -1.953575213144307 0  1.035573408635234 -1.862321677547506 0  1.210478153509026 -1.753680228980309 0  1.374096158122153 -1.628669356017012 0  1.524867893532289 -1.488454057536111 0  1.661402637174793 -1.33432975577677 0  1.782422869608511 -1.167758458476941 0  1.886807462473533 -0.9902707711929405 0  1.973572554334686 -0.803547141977621 0  2.04191163649985 -0.6093232973847897 0  2.091175890712511 -0.4093995709516741 0  2.120937702928695 -0.2056591802507048 0  2.130887241992383 -2.098457724108495e-06 0  2.120925723863178 0.2056582503337036 0  2.091178070458533 0.4093964778078851 0  2.041904485860275 0.6093131699721767 0  1.973576527385972 0.8035516843681633 0  1.886801405583501 0.9902686406047919 0  1.782417679458449 1.167747970242358 0  1.66140868171654 1.334330240532581 0  1.524862981298654 1.488457349247841 0  1.374094860864919 1.628676494443923 0  1.210486186232407 1.753695796521271 0  1.035587932721971 1.862332249745496 0  0.8510016954212151 1.953593654529947 0  0.6584804726629552 2.026592843592245 0  0.4598114800673122 2.080684293006522 0  0.2568506987936244 2.115349569947665 0  0.05149022662979232 2.130264412686503 0  -0.1543568216761111 2.125303631160073 0  -0.3587499586639764 2.100470993957993 0  -0.5598007947213048 2.05603898853498 0  -0.7556272630546426 1.992426626095725 0  -0.9443973980290492 1.910193472277031 0  -1.124352235108149 1.810133777842792 0  -1.293799401665403 1.693163156941048 0  -1.451177900742797 1.5603847844273 0  -1.595000462656052 1.413040601159659 0  -1.723919600327886 1.252495613121555 0  -1.836758296747502 1.080265642416129 0  -1.932457060627805 0.897950210600865 0  -2.010095490966787 0.7072607851730573 0  -2.068958799192428 0.5099504890005465 0  -2.108529014119803 0.3078789763833445 0  0.001715208076650819 0.09189452425104269 0  -0.0366594292676342 -1.53789930136702 0  0.5445184734264972 -1.443466491007445 0  -0.6133065556618931 -1.416332690215133 0  1.050524331823495 -1.136942703432311 0  -1.103855477131581 -1.08557180434062 0  1.420307300347619 -0.6117308683960659 0  -1.444337284550746 -0.5567563395235697 0  -0.6379092451943349 1.433558580379325 0  0.8396246450281866 1.325561541804856 0  1.560190982995113 0.04221788371245825 0  0.0302764672327436 1.565061552059878 0  -1.540603375531598 0.2728612145801192 0  -1.139448525179589 1.081513310485832 0  1.285377825310115 0.9030944595590172 0  -0.5073047833417412 0.03225880344881855 0  0.5070080025466011 0.01502626633474352 0  -0.2182367019213926 -0.3369241923413013 0  -0.2663546372553996 0.4756665438556635 0  0.2951176494347835 0.4579161015491116 0  1.381450634123939 0.4512098192253217 0  -1.483708850604308 0.7513636891442571 0  -1.665708870050564 -0.1570820475559665 0  0.2359280714029282 -0.346704022497521 0  0.4123346650097687 1.36266792114901 0  0.6458163154139197 1.652148012923235 0  0.2970532029329563 -1.736147277519105 0  -0.3789824791170304 -1.719369171846092 0  1.423831625684868 -1.035128803761765 0  0.9322383412441059 -1.497172845495178 0  -1.000554781085742 -1.450532130333595 0  -1.470248447397924 -0.9368335941294391 0  1.627194436607569 0.7346275427584038 0  1.734355464900185 0.3736257395262957 0  -0.343381723404565 1.70929379533992 0  -1.015222254015822 1.44881686595339 0  1.217006909333044 1.284893296198661 0  1.747439154551704 -0.2695754036466659 0  -1.322998089815143 -0.06611409579699466 0  1.32159877025445 -0.2655643404713228 0  -1.259913036074288 0.4677779396353985 0  0.3140114612995984 1.770994711468948 0  -0.2738302899015908 1.339181569883081 0  1.065244541830078 -0.7808383140485922 0  -1.104155185364124 -0.7298032177172135 0  -0.2925676345441219 -1.250355322164543 0  0.2452542735124963 -1.253088286252639 0  0.02178206741376353 0.6784400942604806 0  0.6779143260902922 -1.119582973979834 0  -0.5913425395267804 0.3447965967504113 0  -0.5420065952933629 -0.3069921108288056 0  -0.7311616084698228 -1.087788918938667 0  -0.7971136921408537 1.074121606354339 0  0.9392807658854737 0.9751740184757364 0  0.6112791452811953 0.3205746203172239 0  -1.727961986337098 0.5507803186134157 0  -1.817325241444054 0.1277334119850396 0  -1.090079074489036 0.7489504026150686 0  -1.45768180385815 1.081074156732019 0  -1.763373797492941 -0.5341907693504719 0  1.737940027418857 -0.6180748049241116 0  0.5447912982002174 -0.3143451147732515 0  0.005081826950898897 -0.5568526030141081 0  -0.1028718245461151 -1.834622470552741 0  0.6572427385337468 -1.728378433237552 0  -0.7911492639523406 -1.660873215865037 0  -0.0450966394657638 1.853828052316249 0  1.304027840832205 -1.299784267477156 0  -1.26983357081522 -1.333700953367853 0  1.140062068836214 0.6272801890794583 0  1.141842748424169 -0.4961532107112366 0  -1.220123776718048 -0.352180539190697 0  -0.515152789478373 1.173153764453913 0  1.857747518171978 0.075751195561931 0  1.047416082240237 1.523242175105074 0  -0.8136872964897428 1.660286325859176 0  0.674335187650108 1.091301822706428 0  1.266335430080254 0.002901657162273147 0  0.1242928144676083 1.28580407581749 0  -1.300076977198754 1.321650307366131 0  1.548571896624221 1.012652322953992 0  -0.02255661829843 -1.207580713744765 0  0.01083810268847575 0.3686953601821948 0  -1.271022614544234 0.1944998881474887 0  -0.8638750493414202 -0.8678268083058537 0  0.8576606915955062 -0.9408048731031631 0  1.641486786053305 -0.8699056807599815 0  -0.7348376543378995 -0.09695601950733822 0  0.7287889633972819 -0.1240935163836677 0  0.33777259508536 0.6930760755797338 0  0.2424857033397691 -0.06609377264905056 0  0.2816952459389363 0.1950174125554498 0  -0.006821181070844073 -0.1690809291473073 0  -0.2474151947478437 -0.03996745816448089 0  -0.2373044137793842 0.2204327722759019 0  -0.223884470915879 -0.6018658804614878 0  -0.3115945775318466 0.7078561916842131 0  -1.691224906246644 -0.786233353093487 0  0.4026755595752323 -0.5290636693560247 0  -1.477778614544757 -1.189154635269295 0  -0.4733258763557454 -1.092292694169241 0  1.192846931469371 0.2859814738886089 0  -1.646306670724055 0.937263562724244 0  -1.295719548565771 0.8968404448477379 0  0.3117164201120482 -1.49275855292648 0  -1.905930125226514 -0.1942199444198888 0  -0.5778458541345777 1.665861955002608 0  -1.494126359604295 0.5121577346484927 0  0.4266790488988731 -1.103567286469544 0  -0.6025936983803986 -1.811686873962088 0  1.528768181914916 -0.3987634623721626 0  0.126688408707351 -1.905906931235177 0  1.174162570164888 -1.502560554102683 0  -0.3856189521828005 -1.478336136769647 0  1.449018342557968 1.236496052084751 0  -1.5923
[...]
<PointData  Vectors="f_1929-0"> 
<DataArray  type="Float64"  Name="f_1929-0"  NumberOfComponents="3" format="ascii">-1.1473984757540539e-02 -9.4410421319571114e-02 0.0000000000000000e+00  8.8114699351902644e-03 -1.0599995798886118e-01 0.0000000000000000e+00  3.2435987711965202e-02 -1.1630179582869818e-01 0.0000000000000000e+00  5.7875272524801354e-02 -1.2186324535062472e-01 0.0000000000000000e+00  8.5599606767049904e-02 -1.2470548205384031e-01 0.0000000000000000e+00  1.1030780378129018e-01 -1.1926087710617982e-01 0.0000000000000000e+00  1.2618707164790238e-01 -1.0295297067167866e-01 0.0000000000000000e+00  1.3160557791142447e-01 -7.9751060136782848e-02 0.0000000000000000e+00  1.2848989207689707e-01 -5.5044562114590169e-02 0.0000000000000000e+00  1.1873205483671016e-01 -3.0941236219902184e-02 0.0000000000000000e+00  1.0422872056178721e-01 -9.5015043339950686e-03 0.0000000000000000e+00  8.4797618683183140e-02 8.8779288323087291e-03 0.0000000000000000e+00  6.2964248764156641e-02 2.2911314242309602e-02 0.0000000000000000e+00  4.0438989563631865e-02 3.3033558771091195e-02 0.0000000000000000e+00  1.5827068886339557e-02 3.8337243079814669e-02 0.0000000000000000e+00  -8.1819486416585332e-03 3.9021743880265122e-02 0.0000000000000000e+00  -3.2458893092289408e-02 3.5716534669952768e-02 0.0000000000000000e+00  -5.6273625725172860e-02 2.7569437299557253e-02 0.0000000000000000e+00  -7.8320405260209072e-02 1.5433440039682601e-02 0.0000000000000000e+00  -9.8242720592692193e-02 -1.3260887702181230e-03 0.0000000000000000e+00  -1.1413841481943324e-01 -2.1773040275702628e-02 0.0000000000000000e+00  -1.2610565871601939e-01 -4.5148032722617068e-02 0.0000000000000000e+00  -1.3287697101335830e-01 -7.0399426779603633e-02 0.0000000000000000e+00  -1.3186359367428116e-01 -9.5517737646356154e-02 0.0000000000000000e+00  -1.1890666637648421e-01 -1.1452930017037070e-01 0.0000000000000000e+00  -9.6407435204608122e-02 -1.2402447819622157e-01 0.0000000000000000e+00  -6.8454422801125750e-02 -1.2326005621187451e-01 0.0000000000000000e+00  -4.1843784166569614e-02 -1.1816067900516841e-01 0.0000000000000000e+00  -1.7789853433643414e-02 -1.1009741345015409e-01 0.0000000000000000e+00  4.3102428744597162e-03 -9.8577398412064837e-02 0.0000000000000000e+00  2.3279217981970635e-02 -8.4377801411426021e-02 0.0000000000000000e+00  3.8961742032918412e-02 -7.0138317169717301e-02 0.0000000000000000e+00  5.1604902405415605e-02 -5.5106855488344299e-02 0.0000000000000000e+00  6.0711756870667544e-02 -3.7794800573413265e-02 0.0000000000000000e+00  6.7391979167249996e-02 -2.2459502148944363e-02 0.0000000000000000e+00  7.0141864875372856e-02 -5.1927681616427170e-03 0.0000000000000000e+00  7.0498501908708100e-02 1.0405182395132353e-02 0.0000000000000000e+00  6.7756172466276243e-02 2.5543875294537888e-02 0.0000000000000000e+00  6.2697468510149623e-02 3.9096574386319791e-02 0.0000000000000000e+00  5.4813281640144852e-02 5.1401603040854213e-02 0.0000000000000000e+00  4.5620991514930063e-02 6.1349716479759488e-02 0.0000000000000000e+00  3.5279955162357407e-02 6.9118424405847742e-02 0.0000000000000000e+00  2.2265482089066858e-02 7.5022011285530113e-02 0.0000000000000000e+00  9.3116176979344909e-03 7.8026423542333662e-02 0.0000000000000000e+00  -3.3153217168736680e-03 7.8624242492710411e-02 0.0000000000000000e+00  -1.7126481539785580e-02 7.6627976829943517e-02 0.0000000000000000e+00  -3.0731747710259293e-02 7.1780200360896496e-02 0.0000000000000000e+00  -4.1526125466611372e-02 6.4950138035991978e-02 0.0000000000000000e+00  -5.0855637907073224e-02 5.6009859886128069e-02 0.0000000000000000e+00  -6.0892581527875272e-02 4.3338538646382797e-02 0.0000000000000000e+00  -6.5841292992038419e-02 3.0777342109602177e-02 0.0000000000000000e+00  -6.9816892813326481e-02 1.5771968056226032e-02 0.0000000000000000e+00  -6.9973908052349820e-02 1.1956576449581799e-03 0.0000000000000000e+00  -6.8955816451784654e-02 -1.6799456415451660e-02 0.0000000000000000e+00  -6.3331193273060957e-02 -3.2147545361736925e-02 0.0000000000000000e+00  -5.4988544833586631e-02 -4.7651820790662415e-02 0.0000000000000000e+00  -4.3830485433837149e-02 -6.3643818703590455e-02 0.0000000000000000e+00  -2.9381231951951362e-02 -7.8849592875628899e-02 0.0000000000000000e+00  -1.2379389861592861e-01 5.9921238406810554e-03 0.0000000000000000e+00  -1.2375239348426599e-01 -5.9893028165491358e-03 0.0000000000000000e+00  -1.2262187959419517e-01 -1.7933142857288649e-02 0.0000000000000000e+00  -1.2032312949979967e-01 -2.9659871648653229e-02 0.0000000000000000e+00  -1.1689959422720526e-01 -4.1134086114127839e-02 0.0000000000000000e+00  -1.1238702274740242e-01 -5.2216712495642081e-02 0.0000000000000000e+00  -1.0683855778436561e-01 -6.2835735326348272e-02 0.0000000000000000e+00  -1.0025995334931012e-01 -7.2840831279991136e-02 0.0000000000000000e+00  -9.2783377914376061e-02 -8.2173884101402972e-02 0.0000000000000000e+00  -8.4380639430041121e-02 -9.0726438826532640e-02 0.0000000000000000e+00  -7.5246975668451233e-02 -9.8490047258779981e-02 0.0000000000000000e+00  -6.5418697116148436e-02 -1.0527842892729847e-01 0.0000000000000000e+00  -5.4921214360040070e-02 -1.1111894170987437e-01 0.0000000000000000e+00  -4.3974595973067687e-02 -1.1588481365148470e-01 0.0000000000000000e+00  -3.2553038191202942e-02 -1.1956624068195791e-01 0.0000000000000000e+00  -2.0833561385464671e-02 -1.2218982483267847e-01 0.0000000000000000e+00  -8.9842757837219414e-03 -1.2362696528658272e-01 0.0000000000000000e+00  2.9736630465508635e-03 -1.2391849847260351e-01 0.0000000000000000e+00  1.4937387925995990e-02 -1.2301629102647874e-01 0.0000000000000000e+00  2.6760256514603318e-02 -1.2102471576860099e-01 0.0000000000000000e+00  3.8299274730061422e-02 -1.1788592359078988e-01 0.0000000000000000e+00  4.9488050779347800e-02 -1.1360349516006324e-01 0.0000000000000000e+00  6.0221298242451406e-02 -1.0829491337781341e-01 0.0000000000000000e+00  7.0392681301837276e-02 -1.0197450204892977e-01 0.0000000000000000e+00  7.9942192499318679e-02 -9.4712914362772072e-02 0.0000000000000000e+00  8.8700450755972840e-02 -8.6575927488461366e-02 0.0000000000000000e+00  9.6634139131154900e-02 -7.7599584961636492e-02 0.0000000000000000e+00  1.0365783642436691e-01 -6.7929540162888324e-02 0.0000000000000000e+00  1.0973477075699442e-01 -5.7583644020016984e-02 0.0000000000000000e+00  1.1477389626589295e-01 -4.6735962869994437e-02 0.0000000000000000e+00  1.1874705629658204e-01 -3.5449678423143088e-02 0.0000000000000000e+00  1.2158585785548946e-01 -2.3808051300999351e-02 0.0000000000000000e+00  1.2334402685370692e-01 -1.1954027926278929e-02 0.0000000000000000e+00  1.2392655761422640e-01 -8.4890922553704229e-06 0.0000000000000000e+00  1.2331458002669078e-01 1.1953083594288845e-02 0.0000000000000000e+00  1.2159093892238725e-01 2.3801717238747171e-02 0.0000000000000000e+00  1.1872890064600121e-01 3.5426328895501707e-02 0.0000000000000000e+00  1.1478362429782803e-01 4.6744923203139215e-02 0.0000000000000000e+00  1.0971916869734105e-01 5.7578944015835340e-02 0.0000000000000000e+00  1.0364554971764768e-01 6.7903069049092588e-02 0.0000000000000000e+00  9.6648382045971815e-02 7.7601365097951042e-02 0.0000000000000000e+00  8.8687234947311830e-02 8.6584040857070388e-02 0.0000000000000000e+00  7.9935339297850128e-02 9.4732806017264456e-02 0.0000000000000000e+00  7.0406628295532472e-02 1.0201505617745810e-01 0.0000000000000000e+00  6.0260397514593528e-02 1.0831775378631658e-01 0.0000000000000000e+00  4.9494416824456607e-02 1.1364628217954705e-01 0.0000000000000000e+00  3.8297715936432344e-02 1.1785794335644756e-01 0.0000000000000000e+00  2.6741911768757568e-02 1.2100398979635353e-01 0.0000000000000000e+00  1.4938436269916235e-02 1.2302151238918720e-01 0.0000000000000000e+00  2.9927626924510006e-03 1.2388977533951807e-01 0.0000000000000000e+00  -8.9927545734934441e-03 1.2363559656989380e-01 0.0000000000000000e+00  -2.0862049897421634e-02 1.2215857135219402e-01 0.0000000000000000e+00  -3.2561287377413178e-02 1.1956889581880248e-01 0.0000000000000000e+00  -4.3956404269457697e-02 1.1590363152346028e-01 0.0000000000000000e+00  -5.4942358608061549e-02 1.1111058391022724e-01 0.0000000000000000e+00  -6.5415632225605522e-02 1.0530348008927368e-01 0.0000000000000000e+00  -7.5252317622555728e-02 9.8489541717014295e-02 0.0000000000000000e+00  -8.4423486340307857e-02 9.0751543146461652e-02 0.0000000000000000e+00  -9.2779266848336484e-02 8.2182666616745073e-02 0.0000000000000000e+00  -1.0024779129094508e-01 7.2821901463103550e-02 0.0000000000000000e+00  -1.0681598234348433e-01 6.2805615380916599e-02 0.0000000000000000e+00  -1.1241382997315523e-01 5.2196699176480316e-02 0.0000000000000000e+00  -1.1691062420077664e-01 4.1140873906652491e-02 0.0000000000000000e+00  -1.2030415449472026e-01 2.9646817049826805e-02 0.0000000000000000e+00  -1.2263321355825382e-01 1.7874235729463707e-02 0.0000000000000000e+00  -1.4636687597445038e-04 1.6241804745320215e-01 0.0000000000000000e+00  -1.3675706328301377e-03 -8.4348858172838867e-02 0.0000000000000000e+00  2.4963898852265264e-02 -8.1114653654459981e-02 0.0000000000000000e+00  -2.7646515573807429e-02 -7.9890396665483060e-02 0.0000000000000000e+00  4.6892748456268535e-02 -6.4258292784490093e-02 0.0000000000000000e+00  -4.6192852273723030e-02 -6.1441319243339287e-02 0.0000000000000000e+00  4.0071881660848060e-02 -5.6270215158395982e-02 0.0000000000000000e+00  -4.1620768439120104e-02 -5.8536649964836845e-02 0.0000000000000000e+00  -6.7368130786391450e-02 7.5021553635747446e-02 0.0000000000000000e+00  8.5604859903634603e-02 5.7799290740935802e-02 0.0000000000000000e+00  7.2936578871558730e-02 -6.0499721927123114e-02 0.0000000000000000e+00  3.9831538172263219e-03 9.7203807307016221e-02 0.0000000000000000e+00  -8.6967500583455856e-02 -5.1069256095628401e-02 0.0000000000000000e+00  -1.0331706936746107e-01 2.3127200502922524e-02 0.0000000000000000e+00  1.0759029076288744e-01 7.1271284612141360e-04 0.0000000000000000e+00  -4.3970269785471194e-02 7.1549052662136958e-02 0.0000000000000000e+00  4.1909034661452210e-02 7.2393094302934252e-02 0.0000000000000000e+00  5.5139340003959843e-03 1.5544793808914548e-01 0.0000000000000000e+00  -3.4189883532887815e-02 1.0710505802802851e-01 0.0000000000000000e+00  3.7121696851915888e-02 1.0501445122543859e-01 0.0000000000000000e+00  8.4503542469466800e-02 -4.9870787015656809e-02 0.0000000000000000e+00  -1.1163025954796164e-01 -8.2151227147072379e-03 0.0000000000000000e+00  -8.1610387335500995e-02 -5.3591488555805672e-02 0.0000000000000000e+00  -8.5242617631655915e-03 1.5076456070460584e-01 0.0000000000000000e+00  4.7591603232063705e-02 7.4900444996287951e-02 0.0000000000000000e+00  6.1074154044574093e-02 9.6913393110115431e-02 0.0000000000000000e+00  1.9902785803158435e-02 -1.0695444171748694e-01 0.0000000000000000e+00  -2.5617012728685783e-02 -1.0556231952597950e-01 0.0000000000000000e+00  8.1874331982977569e-02 -5.8230074946888560e-02 0.0000000000000000e+00  6.2955324263476123e-02 -8.9266805294786603e-02 0.0000000000000000e+00  -6.6449903627658694e-02 -8.5466683906569363e-02 0.0000000000000000e+00  -7.9137507987141628e-02 -5.5758767394825361e-02 0.0000000000000000e+00  1.1806898817505741e-01 1.5416615862438100e-03 0.0000000000000000e+00  1.1234139076440615e-01 -2.3650893067520183e-02 0.0000000000000000e+00  -3.3737179284647326e-02 1.0642299209706126e-01 0.0000000000000000e+00  -9.1423644362313344e-02 7.1719068430787625e-02 0.0000000000000000e+00  1.0502038121991761e-01 5.2614781883402836e-02 0.0000000000000000e+00  9.3175364606561895e-02 -4.7323129235978811e-02 0.0000000000000000e+00  -2.5158437639580634e-02 -8.4108535868351153e-02 0.0000000000000000e+00  7.8154553311783771e-03 -8.1447560476312755e-02 0.0000000000000000e+00  -7.5735386258886248e-02 -5.3776535882196018e-02 0.0000000000000000e+00  2.9942307137792071e-02 1.1094857155925739e-01 0.0000000000000000e+00  -3.2598059064002968e-02 7.8336231851961868e-02 0.0000000000000000e+00  -1.6789332220124218e-02 -6.3853997270175544e-02 0.0000000000000000e+00  1.8510971552314692e-02 -6.5139865041741699e-02 0.0000000000000000e+00  8.1673251444030551e-03 -5.1448382046551000e-02 0.0000000000000000e+00  -5.4702867915335431e-03 -4.8150070822463538e-02 0.0000000000000000e+00  2.9930129884828903e-03 1.0476247993901661e-01 0.0000000000000000e+00  -7.6896984944475706e-03 -6.6988179619931379e-02 0.0000000000000000e+00  -5.9645926909006247e-02 4.6295042354851948e-02 0.0000000000000000e+00  8.7191832336393753e-03 3.8356583280014338e-02 0.0000000000000000e+00  8.6516135348153732e-03 -6.8711452830410927e-02 0.0000000000000000e+00  -8.2576403038953153e-02 3.0295541757222353e-02 0.0000000000000000e+00  9.1072076182053346e-02 1.1674056112679911e-02 0.0000000000000000e+00  5.9908541119349949e-02 4.0081199370623974e-02 0.0000000000000000e+00  -1.1800924452969416e-01 -7.9820690126932246e-03 0.0000000000000000e+00  -1.1110261037109691e-01 -3.0249145970256009e-02 0.0000000000000000e+00  -9.0193982246943014e-02 -1.9172325400068017e-02 0.0000000000000000e+00  -1.1480773030396044e-01 3.4496862725492926e-02 0.0000000000000000e+00  -9.8532090599921074e-02 -4.7646092652325070e-02 0.0000000000000000e+00  9.7413585157378191e-02 -4.8582628190544479e-02 0.0000000000000000e+00  -1.3981940305717465e-02 3.7425895287284405e-02 0.0000000000000000e+00  -2.2155063629864693e-03 1.4690619049418704e-01 0.0000000000000000e+00  -7.3315574178879897e-03 -1.1469060284624608e-01 0.0000000000000000e+00  4.5584169511353613e-02 -1.0676352770076754e-01 0.0000000000000000e+00  -5.4736743509505671e-02 -1.0132807015365698e-01 0.0000000000000000e+00  -3.6648429392361933e-03 1.1793392773687755e-01 0.0000000000000000e+00  8.5993858695530126e-02 -7.3363524493978635e-02 0.0000000000000000e+00  -8.3921344616408183e-02 -7.6270835309777199e-02 0.0000000000000000e+00  8.3142432617915943e-02 -3.6115933444375262e-02 0.0000000000000000e+00  -3.7614143343153800e-02 -8.5824433329166311e-02 0.0000000000000000e+00  1.7213065509092833e-02 -8.7972569308625889e-02 0.0000000000000000e+00  -5.7774574966224707e-02 5.5599110824191077e-02 0.0000000000000000e+00  1.1337746932502876e-01 -2.8240852747136162e-02 0.0000000000000000e+00  8.9031651873124298e-02 8.0477388462855112e-02 0.0000000000000000e+00  -7.0965715229551002e-02 9.5716245620790646e-02 0.0000000000000000e+00  7.3950431276683923e-02 3.9522172588303997e-02 0.0000000000000000e+00  2.5367931201944378e-02 -8.8074747962923097e-02 0.0000000000000000e+00  1.4593127904526382e-02 7.7178626139388098e-02 0.0000000000000000e+00  -1.0500337732753047e-01 5.9866313343118295e-02 0.0000000000000000e+00  1.1743192132983159e-01 3.0735322007972521e-02 0.0000000000000000e+00  3.0103913277870391e-03 -3.5411917234576415e-02 0.0000000000000000e+00  1.3587202890657716e-03 1.3539697661828329e-01 0.0000000000000000e+00  -4.8788518633506382e-02 -7.6534702115277339e-02 0.0000000000000000e+00  3.9543840913246184e-02 -7.5244192640067806e-02 0.0000000000000000e+00  -2.0496375745792803e-02 -7.0713415597565665e-02 0.0000000000000000e+00  9.5982212963128935e-02 -5.3936366740631528e-02 0.0000000000000000e+00  -2.0544228354040277e-02 -3.2560452596665242e-02 0.0000000000000000e+00  1.5010108050604775e-02 -3.2781458760743787e-02 0.0000000000000000e+00  4.0804372786794989e-02 8.2246831856246261e-02 0.0000000000000000e+00  2.0793411830545772e-02 1.5039820104533455e-01 0.0000000000000000e+00  3.4146513063209892e-02 1.2678495184171329e-01 0.0000000000000000e+00  -8.5104533874023577e-04 1.7857327453453239e-01 0.0000000000000000e+00  -2.3838905784847163e-02 1.4796713924586063e-01 0.0000000000000000e+00  -3.0184842284516143e-02 1.3191992535674316e-01 0.0000000000000000e+00  4.5000100236987077e-02 1.0948356817078612e-01 0.0000000000000000e+00  -3.7558893120453310e-02 8.4581429255096888e-02 0.0000000000000000e+00  -9.7630224916363695e-02 -5.2382811498521288e-02 0.0000000000000000e+00  -6.8549907416625311e-02 7.4001478122043357e-02 0.0000000000000000e+00  -9.4075689364583159e-02 -6.7697286755174960e-02 0.0000000000000000e+00  3.6287613912701154e-02 -4.5483459093182368e-02 0.0000000000000000e+00  5.1916265904939869e-02 -7.3032479182930557e-02 0.0000000000000000e+00  -1.1899653387133537e-01 2.8994596106629810e-02 0.0000000000000000e+00  -1.0740179741150921e-01 9.1717375959089102e-04 0.0000000000000000e+00  1.3682208468040387e-02 -8.1284581454629565e-02 0.0000000000000000e+00  -1.1340192940035301e-01 -3.3138108050283180e-02 0.0000000000000000e+00  -5.5274499384125583e-02 9.9359371328534785e-02 0.0000000000000000e+00  -9.9318598124002885e-02 -3.4925839500514790e-02 0.0000000000000000e+00  -3.1332206552677551e-02 -4.1052402231719971e-02 0.0000000000000000e+00  -4.1678088046705475e-02 -1.1190269267881540e-01 0.0000000000000000e+00  5.2979726985219203e-02 -5.9592965825721558e-02 0.0000000000000000e+00  8.5604435358185814e-03 -1.1913840180994630e-01 0.0000000000000000e+00  8.0303480108474198e-02 -8.8143941858292524e-02 0.0000000000000000e+00  -1.6456217492338256e-02 -8.0796268497924456e-02 0.0000000000000000e+00  1.1008780119053099e-01 5.4456905407410029e-02 0.0000000000000000e+00  -6.6221984939830919e-02 -5.7028101745502401e-02 0.0000000000000000e+00  -7.8503476491017091e-02 -5.7189822139426222e-02 0.0000000000000000e+00  5.6023657264066842e-02 6.2425387319625131e-02 0.0000000000000000e+00  8.3389467088715918e-02 -5.3950779267040984e-02 0.0000000000000000e+00  1.0110352142809738e-01 -2.5131498115497006e-02 0.0000000000000000e+00  -5.8490064357385366e-02 5.7785988252148666e-02 0.0000000000000000e+00  5.0421151974686773e-02 8.9569969161295782e-02 0.0000000000000000e+00  7.1899112657853814e-02 9.8055227431964043e-02 0.0000000000000000e+00  -4.9989213710993380e-02 8.6658972084964220e-03 0.0000000000000000e+00  1.2194713094904407e-01 6.7204229763087181e-03 0.0000000000000000e+00  4.7891076963191566e-02 -1.6338358006048815e-02 0.0000000000000000e+00  -1.2133308339745350e-01 -6.8112801716096833e-03 0.0000000000000000e+00  4.0420956601696673e-02 -7.4007800264441828e-02 0.0000000000000000e+00  4.9606593806462124e-02 5.8968697858156303e-02 0.0000000000000000e+00  -3.9611873112066820e-02 1.1940732949926282e-01 0.0000000000000000e+00  -3.6641630460016457e-02 -7.5467906367383861e-02 0.0000000000000000e+00  4.1452513477608949e-02 1.1424873996784170e-01 0.0000000000000000e+00  6.1186818970703521e-02 -5.2656908758629661e-02 0.0000000000000000e+00  -9.0897417336915975e-02 6.3876042605622444e-03 0.0000000000000000e+00  -8.5287749039244187e-02 5.5747926791938740e-02 0.0000000000000000e+00  2.6253389661797816e-02 8.7941903432770543e-02 0.0000000000000000e+00  6.7533178468313901e-02 7.3991031110934816e-02 0.0000000000000000e+00  4.3399491452354423e-02 -5.5574501723120395e-02 0.0000000000000000e+00  -3.1543594733753864e-02 -7.2725286291894162e-02 0.0000000000000000e+00  4.3944729311579077e-02 9.3652147020539700e-02 0.0000000000000000e+00  -3.3619473981064373e-02 1.1711631133237331e-01 0.0000000000000000e+00  1.3727666602622932e-02 -7.1797446065154868e-02 0.0000000000000000e+00  -1.0956118065732932e-02 7.5652217126507298e-02 0.0000000000000000e+00  9.8104047232638075e-02 3.7360550195580038e-02 0.0000000000000000e+00  8.1165929856509680e-02 -1.0956756091374479e-02 0.0000000000000000e+00  1.1159196755250775e-01 -4.0143723967132484e-02 0.0000000000000000e+00  3.2846489485201691e-02 -1.1543834694060946e-01 0.0000000000000000e+00  5.8880831685896272e-02 -1.0592639291080119e-01 0.0000000000000000e+00  5.7422913448394709e-02 -6.4033027710084997e-02 0.0000000000000000e+00  2.0958660706405165e-03 -6.3484490691801967e-02 0.0000000000000000e+00  1.1625257826587137e-02 1.2119183794894657e-01 0.0000000000000000e+00  -4.1035891647857432e-02 -5.4790101089623115e-02 0.0000000000000000e+00  -3.3209836621712008e-02 -5.5526105667853862e-02 0.0000000000000000e+00  3.7800302691759617e-03 -1.0457542876762448e-01 0.0000000000000000e+00  1.1536098721777886e-01 -2.9487404876672247e-02 0.0000000000000000e+00  1.2159176568717343e-01 -7.5166946119262831e-03 0.0000000000000000e+00  9.2147767339095799e-02 -4.7757519149493305e-02 0.0000000000000000e+