<?xml version="1.0"?>
<VTKFile type="UnstructuredGrid"  version="0.1"  >
<UnstructuredGrid>
<Piece  NumberOfPoints="821" NumberOfCells="1550">
<Points>
<DataArray  type="Float64"  NumberOfComponents="3"  format="ascii">-0.9416021812551577 0.01900286399464698 0  -0.9450105112682311 -0.0841150681063054 0  -0.9369251967256789 -0.1872158153026995 0  -0.9172003842800616 -0.2886944818466287 0  -0.8864082250742416 -0.3869069387422596 0  -0.8450075044123689 -0.4806403648087194 0  -0.7941671580761106 -0.5683940728188537 0  -0.7352205095469799 -0.6488997708720257 0  -0.6684590680368155 -0.7220666023828044 0  -0.5947121698662129 -0.7874262282932614 0  -0.5150121158918047 -0.8445278392436933 0  -0.4299616432121899 -0.8933096061300478 0  -0.3402718502293603 -0.9329977688992187 0  -0.2477151834752447 -0.9630660471542378 0  -0.1519993058354641 -0.9837482833693374 0  -0.05466339958180685 -0.994503247810488 0  0.04327768526254763 -0.9952198793133432 0  0.1406898024336499 -0.9857155886614316 0  0.2368453941909148 -0.9662807908175854 0  0.3303135653431326 -0.9371486336623853 0  0.4201449086897889 -0.8986424070987499 0  0.5058426457356691 -0.8509562636244844 0  0.5861404357748057 -0.7947875286436322 0  0.6602378147159164 -0.7305655342632964 0  0.727839806834701 -0.6583679642242167 0  0.7878238782790981 -0.5786173313117889 0  0.8397575458442547 -0.4914439010102588 0  0.8820500192570147 -0.3986624450626957 0  0.9142570155821619 -0.3007330897186719 0  0.9353158983225032 -0.1995581230176098 0  0.9448573920743017 -0.09677494357093507 0  0.9427414560224037 0.00672111322368666 0  0.929047099210719 0.1093364679552069 0  0.9040142394493473 0.2097985059148257 0  0.8681633910372438 0.306600540026654 0  0.8216961203342229 0.3991816107822337 0  0.7650481449670155 0.4862826808365292 0  0.6991826272995316 0.5663449858968125 0  0.624905525015278 0.638733822364048 0  0.5432256670441917 0.7026810156359542 0  0.4548878564038781 0.7573593809152455 0  0.3613626593173152 0.8018170409104169 0  0.2632479670079685 0.8361831474638416 0  0.161716429470338 0.8596432332674619 0  0.0584491145646662 0.8717510608016165 0  -0.04551234224033536 0.8722816839760682 0  -0.1493595567024454 0.861522442220003 0  -0.2508333142104484 0.8395252618606258 0  -0.3492504758843519 0.8066239264857156 0  -0.4436689041227488 0.7631380896521461 0  -0.5327660757978587 0.7095703272726092 0  -0.6151455662981637 0.6469832988112637 0  -0.6902861379239487 0.5757453277150345 0  -0.7573687510946202 0.4963331988191391 0  -0.815192605801352 0.4101068684853752 0  -0.8629418692091502 0.3184881642680887 0  -0.9004337280776116 0.2214710104816755 0  -0.9267375311845816 0.1213603359758511 0  -1.920686132503004 0.09586962538764772 0  -1.920686363269355 -0.09587129121582205 0  -1.90160738309851 -0.2865284672169086 0  -1.863594735250201 -0.4745285437890444 0  -1.80708541757746 -0.6577278294576427 0  -1.732589550065399 -0.8344721644718029 0  -1.640943428748559 -1.002759692276246 0  -1.532998446518641 -1.161089510822247 0  -1.409652772591694 -1.30808763229062 0  -1.272472112638254 -1.441887492363974 0  -1.122655714516525 -1.561364385606303 0  -0.9615308258022535 -1.665420905194062 0  -0.7908526631497 -1.752930855798353 0  -0.6124852820948251 -1.822934578584157 0  -0.4279238846392578 -1.87486339389262 0  -0.2391223539802347 -1.908154091922771 0  -0.04794534269024659 -1.922481024156349 0  0.1437237337399021 -1.917699221876842 0  0.333848001337405 -1.893874060571 0  0.520844921459097 -1.851189084251549 0  0.7026630100797927 -1.790105732413184 0  0.8773184339458729 -1.711297951213068 0  1.043358809644923 -1.61543631499276 0  1.199028147801536 -1.503516290773634 0  1.342695519769024 -1.376728560232287 0  1.473149711753837 -1.236122713992567 0  1.588910044781233 -1.083301790006677 0  1.688873366707864 -0.9197118449115406 0  1.772054949201905 -0.7469836851020258 0  1.83762528451124 -0.5668311276601531 0  1.884961776093885 -0.3809621570673946 0  1.913519934052117 -0.1914772643614031 0  1.923073775596819 -9.095751803099824e-05 0  1.913508549497248 0.1914743109933257 0  1.88492694463241 0.38113702174508 0  1.837640399882771 0.566835985964055 0  1.77210215749873 0.7469068700236425 0  1.688843185285971 0.9197959071471029 0  1.58892181953187 1.083307552050102 0  1.473218458689652 1.236060209618937 0  1.3426850922894 1.376739531696985 0  1.199099726671084 1.503452084495003 0  1.043281052244804 1.615481829606778 0  0.8773399813081254 1.711288581048033 0  0.7025786454971698 1.790145429256202 0  0.5208487929179212 1.851202934854936 0  0.3339284090855704 1.893864868701986 0  0.1438033155292525 1.917691196047307 0  -0.0479420372979306 1.922465961504009 0  -0.2391226723998108 1.908142231902941 0  -0.4280296359627452 1.874834912187512 0  -0.6123712046497934 1.82296906988597 0  -0.790933947303165 1.752885800811585 0  -0.9616165676738876 1.665386485626581 0  -1.122584626122667 1.56142044655984 0  -1.272404780286533 1.441944684977676 0  -1.409705233743556 1.308014866742992 0  -1.533001119620065 1.161087389516043 0  -1.640939517544882 1.002769236853496 0  -1.732634855504645 0.8343924278625641 0  -1.807106191239259 0.6577195547613761 0  -1.863584637860165 0.4746204440085274 0  -1.90160812694411 0.2865281851223775 0  0.001010026219282796 -0.04882832293939827 0  0.1720379759627331 1.388171232979119 0  -0.3812716175774833 1.348949314502308 0  0.6727067382359003 1.230403840875356 0  -0.88378851463396 1.09395759174128 0  1.123448472480612 0.8560124140254317 0  -1.250315397172872 0.6734321462028791 0  1.361009852927911 0.4140748743971295 0  -1.426146561175238 0.1348566420855617 0  1.436372351215213 -0.07952591464213606 0  -1.379367655633793 -0.4329347358013437 0  1.303083685247839 -0.6347576764846237 0  -0.4745409847105703 -0.08646281390969224 0  0.4751426643790418 -0.092199432603009 0  -1.158718930675668 -0.8725879023749752 0  -0.2475877390976755 0.3442602784740886 0  -0.2091853758313773 -0.4684805752010876 0  0.2692317168199699 0.3303655530259942 0  0.9462470398772105 -1.108705085980511 0  -0.7901616580189276 -1.231451650676848 0  0.4639200812029535 -1.389856786491855 0  -0.3030208561816177 -1.42916882395142 0  0.2380828347213813 -0.4734721479166424 0  0.07919602321893685 -1.38913299420535 0  -0.1195264510991562 1.581515980138484 0  -0.7261714073048426 1.408730789998656 0  -1.219892871970365 1.019898901903961 0  1.0573549649244 1.193298684276412 0  -1.521584275832439 0.4670866671071297 0  0.5126479890834271 1.521491771055618 0  -1.58637347319697 -0.1609391598454261 0  1.260366444887915 -0.9704299864939768 0  1.546988993302705 -0.3988218970593173 0  0.0166015530746357 0.5481443775023064 0  -0.5563620852278214 0.222856904426294 0  0.7925835750011382 -1.395754615195386 0  1.026543778124549 -0.7713936679311386 0  0.6402891222814063 -1.129292754564212 0  -0.5165372310914002 -0.4121882870002573 0  1.595744319126053 0.2009673698824859 0  0.568551406489908 0.207931135926849 0  1.47096783600774 0.7036129792608201 0  0.7980262619723586 0.9199158773645153 0  -0.5564506038880805 1.068969338372967 0  -0.09224969027100766 1.193612633668177 0  -1.139677716367677 -1.171989592397958 0  -0.5945807615260195 -1.52009325503686 0  -0.002797855223565227 -0.6885268122086774 0  1.232358657515383 -0.3290025255846792 0  -0.9436797329661596 0.7731256436322704 0  -1.257612752018759 -0.1416251938302036 0  0.5677341782540026 -0.3761323146848449 0  -1.438882628782904 -0.7341250284912214 0  0.3680494701694571 1.134841548504113 0  -1.192850884807684 0.3531375598857301 0  0.2053887077710216 -1.643609152806963 0  -0.1230394821402655 -1.648720646621209 0  1.087348097690776 0.5484327643885716 0  1.215120992081968 0.1010446600390666 0  0.882295479141508 1.400236170852296 0  0.2079818657025634 1.656253491358736 0  -0.4906213372479339 -1.199178472923955 0  -0.3828687112290798 1.614626964428897 0  -1.122382022979605 -0.5848098258391184 0  -0.8245228704372736 -0.9571543085743683 0  -1.044987472138629 1.306633344283268 0  1.368641005593492 0.9449502645205401 0  0.009555294115253151 0.2934614108399077 0  -1.501498445269518 0.7246283248798981 0  1.60032704166606 0.4898960393683776 0  -1.670475008327149 0.07728072212200689 0  -1.179074118125198 0.09289844306061444 0  -0.1267806432040549 -1.243271021472119 0  1.664914191272362 -0.1780870760360754 0  0.2675133573555034 0.575368212832971 0  0.2277763724905389 -0.2009203491712288 0  0.2520104012702204 0.06508957581508196 0  -0.00799112920394573 -0.3059358872824939 0  -0.2299279065101851 -0.1716188054198446 0  -0.2224547835739633 0.08769753062085442 0  -1.02651279891538 0.536894651524753 0  -0.6966524088838661 0.01439983617463514 0  0.709924325249469 -0.04465019463771375 0  -0.7158757722990127 0.8751503500295135 0  -1.617873951091752 -0.50219895639257 0  -0.4678878076322529 0.4538729603603182 0  -0.2327366562667947 0.5898070118347802 0  1.080274039299199 -0.5340631778653019 0  1.526973345389422 -0.7381000600355659 0  -0.3974596346610018 -0.6241529732063107 0  0.5586615093119157 0.9774459899974176 0  -0.3096735293829752 1.075912495751831 0  0.4878291186628488 0.4400517890490658 0  1.176219184708442 -1.19867492117055 0  -1.333213141543132 -1.034432269523574 0  -0.9529545229509574 -0.7502569754821701 0  0.26853356864402 -1.222962920296565 0  0.415120105908625 -0.6281670230654283 0  0.828894627581613 -0.9022295758903005 0  -0.6790783643199019 -0.2320959975869344 0  0.9294108209031228 0.7232361433425445 0  -0.9225493838397278 -1.431445761927181 0  -1.156037064336558 -0.3551758766687576 0  0.6275806498556569 -1.565284404576549 0  1.114033415011926 0.3127162804527902 0  0.1295870555282023 1.098948353465933 0  -0.3534810851897282 -1.656514790845128 0  0.2117183250503509 -0.694781229675986 0  1.165706202805633 -0.118706806445376 0  0.9958316303728802 -1.319267033079291 0  0.4153981334320276 -1.599983679687356 0  -0.6066368435435838 1.599429959453957 0  -1.693848636314136 0.3390107008860157 0  -1.429166646179181 0.9711476519850916 0  1.272791591918316 1.145648186019538 0  -0.6241293179815793 -1.034888410434861 0  1.285977414535743 0.6081048
[...]
<PointData  Vectors="f_819-0"> 
<DataArray  type="Float64"  Name="f_819-0"  NumberOfComponents="3" format="ascii">-4.5744136695107782e-02 -1.1966452294664844e-01 0.0000000000000000e+00  -2.4821233515793864e-02 -1.3217866609073445e-01 0.0000000000000000e+00  -9.8923314021649483e-04 -1.4388489386077943e-01 0.0000000000000000e+00  2.5322932658552854e-02 -1.5237397694134555e-01 0.0000000000000000e+00  5.2549327518955767e-02 -1.5409228788805371e-01 0.0000000000000000e+00  7.9527402595276631e-02 -1.4971966514303550e-01 0.0000000000000000e+00  1.0145323457523575e-01 -1.3620586990301406e-01 0.0000000000000000e+00  1.1324358062546723e-01 -1.1177797929887071e-01 0.0000000000000000e+00  1.1805262901183296e-01 -8.3762745972851729e-02 0.0000000000000000e+00  1.1594616340571925e-01 -5.4966956312478957e-02 0.0000000000000000e+00  1.0737691078888455e-01 -2.6991355250188118e-02 0.0000000000000000e+00  9.5047016035967102e-02 -2.3530374657455555e-03 0.0000000000000000e+00  7.9824350593137902e-02 1.7958419275025093e-02 0.0000000000000000e+00  5.6342681330413938e-02 3.5700343487718202e-02 0.0000000000000000e+00  3.4666245229446786e-02 4.6957062718063200e-02 0.0000000000000000e+00  1.2212639520776581e-02 5.2833123528277882e-02 0.0000000000000000e+00  -1.1651789890321573e-02 5.3161589722133591e-02 0.0000000000000000e+00  -3.5373272209401549e-02 4.7665457689177945e-02 0.0000000000000000e+00  -5.5679208985196266e-02 3.7121918588945618e-02 0.0000000000000000e+00  -7.5539023440063607e-02 2.1439696910733195e-02 0.0000000000000000e+00  -9.3930732806941850e-02 5.5653467292970731e-04 0.0000000000000000e+00  -1.0611904335726713e-01 -2.2866513231896465e-02 0.0000000000000000e+00  -1.1581861044409375e-01 -5.0206365562239952e-02 0.0000000000000000e+00  -1.2000681116600496e-01 -8.1454238101756699e-02 0.0000000000000000e+00  -1.1508500015341200e-01 -1.1015273998794139e-01 0.0000000000000000e+00  -1.0354789883025516e-01 -1.3410798056026771e-01 0.0000000000000000e+00  -8.2203358107398969e-02 -1.4762603243524922e-01 0.0000000000000000e+00  -5.6625465261461075e-02 -1.5650703181914116e-01 0.0000000000000000e+00  -2.7585008693587022e-02 -1.5318433708904541e-01 0.0000000000000000e+00  -1.1427467689457339e-03 -1.4487762225467024e-01 0.0000000000000000e+00  2.2458587368320772e-02 -1.3503230741785913e-01 0.0000000000000000e+00  4.3188643568065004e-02 -1.2048787014470791e-01 0.0000000000000000e+00  6.1286851633634509e-02 -1.0387197916831858e-01 0.0000000000000000e+00  7.5557664664961374e-02 -8.4944908584612941e-02 0.0000000000000000e+00  8.6175079399913285e-02 -6.7159248791596238e-02 0.0000000000000000e+00  9.2502083507973176e-02 -4.7697517665004061e-02 0.0000000000000000e+00  9.3023235417935932e-02 -2.6285283654027384e-02 0.0000000000000000e+00  9.2320295224586041e-02 -7.7828366476313743e-03 0.0000000000000000e+00  8.7565468339734193e-02 1.0255726446273187e-02 0.0000000000000000e+00  7.9870934865568469e-02 2.5462123503314497e-02 0.0000000000000000e+00  6.8794015788419260e-02 3.9696239739931756e-02 0.0000000000000000e+00  5.7923245347591724e-02 4.9886099334796076e-02 0.0000000000000000e+00  4.2867966497277865e-02 5.9031549158419960e-02 0.0000000000000000e+00  2.5486666696590960e-02 6.5210148041688412e-02 0.0000000000000000e+00  9.6119947422670868e-03 6.7930228283867994e-02 0.0000000000000000e+00  -6.3200725874919062e-03 6.8682530099290387e-02 0.0000000000000000e+00  -2.6128155998033864e-02 6.6170623636386774e-02 0.0000000000000000e+00  -4.0958314574257269e-02 6.1219294198876034e-02 0.0000000000000000e+00  -5.4711873731353056e-02 5.3518280621486981e-02 0.0000000000000000e+00  -6.8467514512282154e-02 4.2468885514137085e-02 0.0000000000000000e+00  -8.0538618085813973e-02 2.7237288423028510e-02 0.0000000000000000e+00  -8.6115446620020158e-02 1.2318483317352183e-02 0.0000000000000000e+00  -9.0968473418247001e-02 -4.1085253634652241e-03 0.0000000000000000e+00  -9.4221867513546539e-02 -2.4331064928614553e-02 0.0000000000000000e+00  -9.3016705441980332e-02 -4.4895290525038850e-02 0.0000000000000000e+00  -8.5981877547168045e-02 -6.2376603490150735e-02 0.0000000000000000e+00  -7.7318532999693990e-02 -8.5320564928009116e-02 0.0000000000000000e+00  -6.3330958160379522e-02 -1.0337359219586537e-01 0.0000000000000000e+00  -1.0743352690150899e-01 5.4842185285991323e-03 0.0000000000000000e+00  -1.0743567778736375e-01 -5.5012924507234192e-03 0.0000000000000000e+00  -1.0646731622220393e-01 -1.5105171443864501e-02 0.0000000000000000e+00  -1.0409090149574840e-01 -2.6494138613074838e-02 0.0000000000000000e+00  -1.0092650964354080e-01 -3.6759234971861447e-02 0.0000000000000000e+00  -9.6481986882566123e-02 -4.7490552980926443e-02 0.0000000000000000e+00  -9.1782784246044746e-02 -5.6087032586701092e-02 0.0000000000000000e+00  -8.6270604890509958e-02 -6.4211190358600914e-02 0.0000000000000000e+00  -7.8221502618763719e-02 -7.3808866569306242e-02 0.0000000000000000e+00  -7.1171589954978867e-02 -8.0659716601254774e-02 0.0000000000000000e+00  -6.3524206579914241e-02 -8.6783539117348721e-02 0.0000000000000000e+00  -5.3710381778486686e-02 -9.3034846879854943e-02 0.0000000000000000e+00  -4.3388489933486318e-02 -9.8408099363168411e-02 0.0000000000000000e+00  -3.4370906915567365e-02 -1.0194290415102282e-01 0.0000000000000000e+00  -2.3927649699807183e-02 -1.0489466506483028e-01 0.0000000000000000e+00  -1.3374678920151572e-02 -1.0675469902606521e-01 0.0000000000000000e+00  -2.6986592717262998e-03 -1.0755694683663644e-01 0.0000000000000000e+00  8.1602661032325243e-03 -1.0726721611431522e-01 0.0000000000000000e+00  1.7757108038139582e-02 -1.0607071832721249e-01 0.0000000000000000e+00  2.9114130513968193e-02 -1.0343848826035883e-01 0.0000000000000000e+00  4.0155944478791880e-02 -9.9769335922693311e-02 0.0000000000000000e+00  4.8976815553671831e-02 -9.5784828982136097e-02 0.0000000000000000e+00  5.8368583824280208e-02 -9.0380630470037346e-02 0.0000000000000000e+00  6.7163377817494901e-02 -8.4042922564558226e-02 0.0000000000000000e+00  7.4423413115726589e-02 -7.7632099203704452e-02 0.0000000000000000e+00  8.2278435652792969e-02 -6.9072334972310565e-02 0.0000000000000000e+00  8.8773020479183701e-02 -6.0537125722533607e-02 0.0000000000000000e+00  9.4329217373447030e-02 -5.1372791096066753e-02 0.0000000000000000e+00  9.8977660332972769e-02 -4.1721659729701467e-02 0.0000000000000000e+00  1.0264561370192030e-01 -3.1648341085861550e-02 0.0000000000000000e+00  1.0558724237944381e-01 -2.0418516140380982e-02 0.0000000000000000e+00  1.0702711492697972e-01 -1.0716851641402196e-02 0.0000000000000000e+00  1.0753891821533418e-01 -9.2519677912897942e-04 0.0000000000000000e+00  1.0691497923993239e-01 1.0688039324880627e-02 0.0000000000000000e+00  1.0523332633317076e-01 2.2196132267850489e-02 0.0000000000000000e+00  1.0279474155019888e-01 3.1697744457207792e-02 0.0000000000000000e+00  9.9454938263468975e-02 4.0938814645059225e-02 0.0000000000000000e+00  9.4019419707360996e-02 5.2226074077397128e-02 0.0000000000000000e+00  8.8889823182473751e-02 6.0593616569513793e-02 0.0000000000000000e+00  8.2974713863568361e-02 6.8435478993719753e-02 0.0000000000000000e+00  7.4317859175114950e-02 7.7742938250316418e-02 0.0000000000000000e+00  6.7891226669887755e-02 8.3392122942557254e-02 0.0000000000000000e+00  5.7578632551914512e-02 9.0844248914702136e-02 0.0000000000000000e+00  4.9194362972162821e-02 9.5689964235043432e-02 0.0000000000000000e+00  3.9298190254666361e-02 1.0017110940237942e-01 0.0000000000000000e+00  2.9151811549476218e-02 1.0357550420141809e-01 0.0000000000000000e+00  1.8574649725808298e-02 1.0597526898915792e-01 0.0000000000000000e+00  8.9702338789414433e-03 1.0718586958370807e-01 0.0000000000000000e+00  -2.6656297418853180e-03 1.0740743550802050e-01 0.0000000000000000e+00  -1.3378392598517813e-02 1.0663699619979797e-01 0.0000000000000000e+00  -2.5001108293751878e-02 1.0460609201633864e-01 0.0000000000000000e+00  -3.3213135904801551e-02 1.0229372591058232e-01 0.0000000000000000e+00  -4.4215794571180890e-02 9.7951993373697213e-02 0.0000000000000000e+00  -5.4580199331369574e-02 9.2682028259831462e-02 0.0000000000000000e+00  -6.2800224000936211e-02 8.7352332592837034e-02 0.0000000000000000e+00  -7.0487057083909566e-02 8.1242409602088519e-02 0.0000000000000000e+00  -7.8756906316845204e-02 7.3071433552567552e-02 0.0000000000000000e+00  -8.6297588770822220e-02 6.4189974760203813e-02 0.0000000000000000e+00  -9.1743301467902202e-02 5.6184226340451608e-02 0.0000000000000000e+00  -9.6941872054054981e-02 4.6679000420984475e-02 0.0000000000000000e+00  -1.0113343900626262e-01 3.6674642768525313e-02 0.0000000000000000e+00  -1.0398522977990547e-01 2.7427663425752195e-02 0.0000000000000000e+00  -1.0647501343475363e-01 1.5102322850504692e-02 0.0000000000000000e+00  1.1504634696812033e-04 1.8674787523360367e-01 0.0000000000000000e+00  1.8063372184652732e-02 7.8577492339124422e-02 0.0000000000000000e+00  -3.8946478726532598e-02 7.2552522708881101e-02 0.0000000000000000e+00  6.7596953681434660e-02 5.4468245250261671e-02 0.0000000000000000e+00  -8.4902105128320499e-02 3.4950421087400207e-02 0.0000000000000000e+00  9.8673178192579800e-02 2.2028601916604363e-03 0.0000000000000000e+00  -1.0104246450914292e-01 -2.0769282481002384e-02 0.0000000000000000e+00  9.4282998716237770e-02 -4.9185906813616460e-02 0.0000000000000000e+00  -7.8957849442237021e-02 -7.1385777417159915e-02 0.0000000000000000e+00  6.4514129342194929e-02 -8.1997740422606991e-02 0.0000000000000000e+00  -3.9103487928203257e-02 -8.6357193895952256e-02 0.0000000000000000e+00  2.8713559893736602e-02 -8.5289702944949891e-02 0.0000000000000000e+00  -4.2329756113528245e-02 8.6285108618944437e-02 0.0000000000000000e+00  4.1710371811358095e-02 8.7053522053574833e-02 0.0000000000000000e+00  -2.2429714454849304e-02 -8.5528643131698556e-02 0.0000000000000000e+00  -4.2108013163853666e-02 1.1955340742228930e-01 0.0000000000000000e+00  1.7904738867981454e-02 1.6311326773798501e-01 0.0000000000000000e+00  4.3928206632134259e-02 1.1726017715946670e-01 0.0000000000000000e+00  1.2308546536836143e-02 -8.7175840112296177e-02 0.0000000000000000e+00  -4.2939179664374027e-03 -8.4615201415303237e-02 0.0000000000000000e+00  -4.0602543389286084e-03 -7.2454390676418387e-02 0.0000000000000000e+00  4.9189917912125600e-03 -6.8646469470448473e-02 0.0000000000000000e+00  -2.0187960254276337e-02 1.5680431205924503e-01 0.0000000000000000e+00  -2.6526401373812157e-03 -5.0324941642119966e-02 0.0000000000000000e+00  -1.0604415446763627e-02 9.5243187524063078e-02 0.0000000000000000e+00  -6.3607709612183094e-02 7.4918837259627877e-02 0.0000000000000000e+00  -9.8985173255023026e-02 3.0852325388541633e-02 0.0000000000000000e+00  8.8294246056641518e-02 4.9950643487891876e-02 0.0000000000000000e+00  -1.0480353632591932e-01 -2.3284025005973482e-02 0.0000000000000000e+00  4.5091386568852129e-02 8.7581445843387104e-02 0.0000000000000000e+00  -8.2259957418608726e-02 -6.0731458307202550e-02 0.0000000000000000e+00  5.1477389715481131e-02 -7.8921321260563865e-02 0.0000000000000000e+00  7.2257132144833272e-02 -6.7288194543206392e-02 0.0000000000000000e+00  1.8997282157298420e-03 1.1134256902415676e-01 0.0000000000000000e+00  -7.4265399865736034e-02 4.2808777258876114e-02 0.0000000000000000e+00  2.4790196036007916e-02 -9.1650605394576812e-02 0.0000000000000000e+00  -2.4135604052523504e-02 -1.0254906671163709e-01 0.0000000000000000e+00  -3.3371668738808168e-02 -6.9205941309936958e-02 0.0000000000000000e+00  2.9851404594221996e-02 5.1634439071553517e-02 0.0000000000000000e+00  9.8790235833276840e-02 -4.0215246974943560e-02 0.0000000000000000e+00  7.4645837134744944e-02 3.9734391255148396e-02 0.0000000000000000e+00  1.0710194591599892e-01 2.7883015064925636e-03 0.0000000000000000e+00  8.5316129673071756e-02 1.1295781129021142e-02 0.0000000000000000e+00  -6.3967042653813699e-02 4.0912444612001553e-02 0.0000000000000000e+00  -9.8832747622159475e-03 6.3942938828779591e-02 0.0000000000000000e+00  -5.0277250597608680e-02 -8.4821535993099134e-02 0.0000000000000000e+00  -1.7774187324743621e-02 -9.3212148426795816e-02 0.0000000000000000e+00  2.8462164672451897e-04 1.4591514421845575e-01 0.0000000000000000e+00  8.8494796587209271e-03 -1.1444844872831662e-01 0.0000000000000000e+00  -9.4254787232136844e-02 -1.2061235046646072e-02 0.0000000000000000e+00  -2.9752689608826530e-02 -1.1216892872713767e-01 0.0000000000000000e+00  -2.0190679022180434e-02 2.4938975199171504e-02 0.0000000000000000e+00  -6.4030299585662420e-02 -7.0379437089708244e-02 0.0000000000000000e+00  4.3545284715259147e-02 5.4808923234061897e-02 0.0000000000000000e+00  -8.2456729166272336e-02 -7.3400834308925272e-02 0.0000000000000000e+00  6.4753445869765299e-03 -9.3944722586347104e-02 0.0000000000000000e+00  -2.7659601240955151e-03 -9.4006531210121078e-02 0.0000000000000000e+00  9.3691585001060604e-02 -4.7198008520680498e-02 0.0000000000000000e+00  5.8103668823539699e-02 -1.0378342147004321e-01 0.0000000000000000e+00  7.2000677461168103e-02 7.3247926783469114e-02 0.0000000000000000e+00  1.7208287344616522e-02 1.0002727125757088e-01 0.0000000000000000e+00  3.2496350145092820e-02 -5.2954846405289677e-02 0.0000000000000000e+00  -3.1694775818898520e-02 9.5986121594548515e-02 0.0000000000000000e+00  2.0787015073467613e-02 -1.1146702410823485e-01 0.0000000000000000e+00  3.8650630028668392e-02 -9.1566574507972495e-02 0.0000000000000000e+00  -8.2257765991758394e-02 6.4169252015556205e-02 0.0000000000000000e+00  1.0247028109986163e-01 2.8511363897095653e-02 0.0000000000000000e+00  9.3587991925534906e-04 1.4735067208053187e-01 0.0000000000000000e+00  -1.0726928330492158e-01 8.4063571426137625e-03 0.0000000000000000e+00  1.0750470275356901e-01 -9.8801906313193653e-03 0.0000000000000000e+00  -9.9692109328284581e-02 -3.7740731060348517e-02 0.0000000000000000e+00  -5.3085685016558616e-02 -1.0759477585100606e-01 0.0000000000000000e+00  1.2526132963674779e-02 -2.0346157619278687e-02 0.0000000000000000e+00  9.2136918479082647e-02 -4.9610038729691434e-02 0.0000000000000000e+00  4.7047000416654453e-02 8.6934325785465172e-02 0.0000000000000000e+00  1.4226772201965386e-02 1.7136113081699791e-01 0.0000000000000000e+00  3.4341667798532129e-02 1.4914395747047476e-01 0.0000000000000000e+00  1.4842284969459943e-04 1.9595277432612718e-01 0.0000000000000000e+00  -1.6523806399045687e-02 1.6969428542740289e-01 0.0000000000000000e+00  -3.1668687139955125e-02 1.5275500508124776e-01 0.0000000000000000e+00  -9.2073458093526309e-02 -5.0181331365660907e-02 0.0000000000000000e+00  -6.1521730124891968e-02 -2.1746540654333842e-02 0.0000000000000000e+00  4.9883270118315642e-02 -2.9998239426954714e-02 0.0000000000000000e+00  -8.3233175205437382e-02 1.2369999071738705e-02 0.0000000000000000e+00  -8.4242058254731286e-02 -5.7109260513879920e-02 0.0000000000000000e+00  -7.4302573280033243e-02 5.9301563952050447e-02 0.0000000000000000e+00  -4.1544508125716736e-02 9.1280771273742456e-02 0.0000000000000000e+00  -3.7343759988618927e-02 -1.2403426371091372e-01 0.0000000000000000e+00  7.7506020330761885e-02 -6.4039487914108462e-02 0.0000000000000000e+00  7.3717368696261804e-02 7.3347090914034116e-02 0.0000000000000000e+00  6.7354749964666810e-02 3.3182157919529304e-02 0.0000000000000000e+00  -3.8713030881536367e-02 5.4221127430164578e-02 0.0000000000000000e+00  7.5881004763967322e-02 5.5378152284095254e-02 0.0000000000000000e+00  5.6667515402728651e-02 -8.3690990224827427e-02 0.0000000000000000e+00  -6.6951448456724474e-02 -7.5208963612970275e-02 0.0000000000000000e+00  4.9022445760666097e-02 -1.1232257689468468e-01 0.0000000000000000e+00  -2.5864734406247293e-02 -2.6673059324164444e-02 0.0000000000000000e+00  -7.8109335470644581e-02 6.6177743036187953e-02 0.0000000000000000e+00  -5.1615386502877059e-02 -9.5335414565680690e-02 0.0000000000000000e+00  -1.3382427972280215e-02 -3.2653601411772752e-02 0.0000000000000000e+00  9.3421031332032958e-02 -1.9950275551110910e-02 0.0000000000000000e+00  -4.1764006127202227e-02 -9.3332783651828302e-02 0.0000000000000000e+00  9.5289097584221188e-03 -1.2748184478456703e-01 0.0000000000000000e+00  2.3759848899253137e-02 -9.6570887458904311e-02 0.0000000000000000e+00  7.6387215781490922e-02 -8.4650104813215568e-02 0.0000000000000000e+00  1.7063354034788442e-02 5.8261755057803941e-02 0.0000000000000000e+00  -1.2207082786635204e-02 -9.8078993237598749e-02 0.0000000000000000e+00  -4.4046201618181555e-02 1.1977957625689659e-01 0.0000000000000000e+00  2.1853243894263460e-02 -1.2731520873914634e-01 0.0000000000000000e+00  4.2493741878659244e-02 -9.0179500889639469e-02 0.0000000000000000e+00  1.2698811363012725e-02 -9.4005837460982136e-02 0.0000000000000000e+00  -4.7168187223070236e-02 9.2781413269489507e-02 0.0000000000000000e+00  -1.0735091164981052e-01 -1.2950292552612711e-02 0.0000000000000000e+00  -1.0125805864461615e-01 3.5821780769809033e-02 0.0000000000000000e+00  9.3723994163544544e-02 5.0276860749838143e-02 0.0000000000000000e+00  5.8325535732187170e-02 -6.3437112803186188e-02 0.0000000000000000e+00  1.0058390885335541e-01 -2.8078230975558144e-02 0.0000000000000000e+00  5.6298167122697938e-02 8.8127823015338766e-02 0.0000000000000000e+00  4.9478386551282207e-02 6.7584767974415760e-02 0.0000000000000000e+00  4.9611317659952706e-02 1.0584757649873994e-01 0.0000000000000000e+00  8.1797092329074297e-02 -6.8998486824603411e-02 0.0000000000000000e+00  -1.7913694624516190e-02 7.8055005442802472e-02 0.0000000000000000e+00  1.0161702263038702e-01 -3.3386900938025522e-02 0.0000000000000000e+00  -3.5484192478733606e-02 -4.6161682564951657e-02 0.0000000000000000e+00  -2.5623627143002924e-03 -6.8896481788708705e-02 0.0000000000000000e+00  2.8695783930630984e-03 -6.3540312647435329e-02 0.0000000000000000e+00  -8.7647346963911354e-03 -4.7038022079734128e-03 0.0000000000000000e+00  8.0048955100769634e-02 4.9631323145962331e-02 0.0000000000000000e+00  -1.4484896700952725e-03 1.2653365971141650e-01 0.0000000000000000e+00  2.3693278165000031e-03 1.8154576602514771e-01 0.0000000000000000e+00  -7.0884121196105362e-02 5.1124734300243710e-02 0.0000000000000000e+00  2.3220582711881510e-03 -1.0235414708681553e-01 0.0000000000000000e+00  -1.3411569770023953e-02 -8.7958064905694189e-02 0.0000000000000000e+00  9.1446911508748979e-02 2.1499150922116746e-02 0.0000000000000000e+00  1.5779321373662904e-03 1.3824999469519658e-01 0.0000000000000000e+00  2.6333734042927642e-02 -3.6364276424892795e-02 0.0000000000000000e+00  3.2749461640154500e-03 1.0494417168136683e-01 0.0000000000000000e+00  2.8990533764009795e-02 1.0098884714569176e-01 0.0000000000000000e+00  -9.9510384213830363e-02 -6.7823345843664301e-04 0.0000000000000000e+00  -8.9375819420308394e-02 5.8140623767800062e-02 0.0000000000000000e+00  -6.8863046234958772e-02 8.0384342055448796e-02 0.0000000000000000e+00  3.4046096069252324e-02 8.2047821596113416e-02 0.0000000000000000e+00  2.3216892337703948e-02 6.2436490158430053e-03 0.0000000000000000e+00  -5.5019254280961140e-02 1.0754819537925724e-01 0.0000000000000000e+00  1.2436138679092264e-03 -8.2663478816808689e-02 0.0000000000000000e+00  -1.4492372638094029e-02 8.7959770902514930e-02 0.0000000000000000e+00  -5.5811251803651596e-02 6.0078037353602710e-02 0.0000000000000000e+00  -9.3682320852383719e-02 1.4107704955417303e-02 0.0000000000000000e+00  -5.0197446472636326e-02 7.8747672583603781e-02 0.0000000000000000e+00  -8.7900939730776118e-02 -5.5437318108517410e-02 0.0000000000000000e+00  -9.4209934824465935e-02 -4.5956702909709185e-02 0.0000000000000000e+00  7.6801484440214132e-02 -6.7857661685316401e-02 0.0000000000000000e+00  8.9760621923679368e-02 -5.2887576985365288e-02 0.0000000000000000e+00  -1.1551355202519473e-03 -9.0397328872122540e-02 0.0000000000000000e+00  -1.4970946837564617e-04 -8.0123029098268683e-02 0.0000000000000000e+00  -7.7761052132616360e-02 5.8491280782980666e-02 0.0000000000000000e+00  -5.6652640030167546e-02 8.9402381161392250e-02 0.0000000000000000e+00  5.5911161734308941e-02 1.0421471680701104e-01 0.0000000000000000e+00  -3.6180010389216123e-02 -9.7214086730139274e-02 0.0000000000000000e+00