<?xml version="1.0"?>
<VTKFile type="UnstructuredGrid"  version="0.1"  >
<UnstructuredGrid>
<Piece  NumberOfPoints="788" NumberOfCells="1491">
<Points>
<DataArray  type="Float64"  NumberOfComponents="3"  format="ascii">-0.9584230589482552 -0.04175276989956201 0  -0.9519657971191376 -0.1456104839691847 0  -0.9336111084425288 -0.2478901594619102 0  -0.9037704422545296 -0.347423612573331 0  -0.863038751993451 -0.4428423211387723 0  -0.8121290781662073 -0.5326036227979212 0  -0.7524487331860542 -0.6153597736285122 0  -0.6849007965830641 -0.6903883171989872 0  -0.610331123442617 -0.757142170139962 0  -0.5293033396132157 -0.815533725639898 0  -0.4426484137247844 -0.8653372141400871 0  -0.3512921644191808 -0.9058704665125458 0  -0.2566337888957841 -0.9369097336741683 0  -0.1591107041579433 -0.9582772210986633 0  -0.05976588935727093 -0.969499026275961 0  0.03994786382072613 -0.9706164607514844 0  0.139277580380007 -0.9614380992895412 0  0.2371040328800967 -0.9422461409413097 0  0.3326060612449731 -0.9130844601723705 0  0.4245538590521288 -0.8743966997654714 0  0.5120393345885438 -0.8266222030517703 0  0.594435908054586 -0.7699114600064267 0  0.6705840058644106 -0.7047979460167315 0  0.7397563856937437 -0.6314066956663587 0  0.8011649778863865 -0.5501737138317223 0  0.8540976712908881 -0.4614997995249731 0  0.8969181375574353 -0.3671991995759215 0  0.9288006368749017 -0.2684964823394866 0  0.9492467528813228 -0.1664689690599479 0  0.957979547443756 -0.06295593099088749 0  0.9549757482076129 0.04089363274096111 0  0.9402494999129954 0.1436578252297533 0  0.9141413703490406 0.2443301578062274 0  0.8770344837195247 0.3411472049666772 0  0.8295928308581678 0.4332513279359377 0  0.7720514438739926 0.5197492901246765 0  0.7053545358095142 0.5993769150560855 0  0.6304691462174026 0.67126321208884 0  0.5480668147555605 0.7348152200081811 0  0.4594757676988095 0.7889574505824305 0  0.3655527582349314 0.8333394988015829 0  0.2674464493598525 0.8675309762369323 0  0.166034442758766 0.8909419312283962 0  0.06276438172072431 0.9033623488278889 0  -0.04121333538972627 0.9042923802810993 0  -0.1448435000704007 0.8941059200717306 0  -0.2467588922969655 0.8729491574463105 0  -0.3456283131824483 0.8410082582371841 0  -0.4406217351968367 0.7987009097121156 0  -0.5303325412842015 0.7465325305709303 0  -0.6141265490691312 0.6848932585634206 0  -0.6907411518639089 0.6146363283051403 0  -0.7591375966497982 0.536625312364876 0  -0.8185604987168513 0.4516250248454322 0  -0.8683782619434225 0.3605592449600976 0  -0.9075685268362449 0.2645400056643569 0  -0.9359728843958034 0.1646743984763881 0  -0.9530548062987705 0.06217240102386044 0  1.972287407300427 4.156874152756856e-07 0  1.962168185410779 0.1995324819074905 0  1.931914959295427 0.3970180893366099 0  1.881837347686621 0.5904293056671883 0  1.812446814304906 0.7777880337060807 0  1.724485052693387 0.9571122839971538 0  1.618774490961011 1.126700354120083 0  1.496457461913011 1.284728304819579 0  1.358841426855629 1.42949960845166 0  1.207284748063904 1.55960760266895 0  1.043220391081995 1.673798666065873 0  0.8686335932474376 1.770702222735807 0  0.684933020719342 1.849534418195523 0  0.4944127969584352 1.909310546863563 0  0.298613352739602 1.949549944662951 0  0.09989485749360835 1.969756579649528 0  -0.09984830261262505 1.969757306644494 0  -0.2987055255617418 1.949535536831941 0  -0.4943589950501827 1.909326755896932 0  -0.6849414011872517 1.849532008847522 0  -0.8686266739850188 1.770706036467222 0  -1.043263862255185 1.673774771757762 0  -1.207255104058228 1.559633165941956 0  -1.358805007532434 1.429531487877714 0  -1.496524549332937 1.284649176679341 0  -1.618747334779852 1.126750188824629 0  -1.72445755122958 0.9571512810837345 0  -1.812466242127424 0.7777388379099475 0  -1.881836599456662 0.590429365088155 0  -1.931903041308304 0.397063809093683 0  -1.962170687258594 0.1994854694809006 0  -1.972286717376326 -1.208049086135381e-07 0  -1.962170311884701 -0.1994870569423946 0  -1.931902257064148 -0.3970652097000004 0  -1.881837933682968 -0.5904244270419454 0  -1.812448414265921 -0.7777838370827013 0  -1.724462790073154 -0.9571547205298049 0  -1.618781287367018 -1.126705276274562 0  -1.496489363100138 -1.284693868187981 0  -1.358841466952981 -1.429499685365352 0  -1.207244032067917 -1.559640858236353 0  -1.043309305432552 -1.673743165388143 0  -0.8685801063123368 -1.770721274642771 0  -0.6849396560019527 -1.849531974865906 0  -0.494364806881139 -1.909325341181165 0  -0.2986591396108466 -1.949544589442849 0  -0.09988879313626214 -1.969756609347475 0  0.09984666607837349 -1.969757012327666 0  0.2986576937861506 -1.949536141351937 0  0.4944130590601767 -1.909310104676412 0  0.6849325985943577 -1.849534118818778 0  0.8686257288717913 -1.770706109903752 0  1.043264319740661 -1.673773779697531 0  1.207249318702071 -1.559637558940835 0  1.35884504604344 -1.429495548699359 0  1.496456179937439 -1.284728618183578 0  1.618774077592491 -1.126699645396241 0  1.724487734374212 -0.9571037591950723 0  1.812423571155394 -0.7778340435251879 0  1.88183010246331 -0.5904288459433868 0  1.931921814982482 -0.3969712176644462 0  1.962166985657943 -0.1995393332333706 0  0.001410214923673145 -0.02692598105801533 0  -0.1459845101330656 1.432562645965427 0  0.4906474550459698 1.35196182985838 0  -0.7029185416664939 1.262846408004566 0  1.029877684557165 1.015808448083866 0  -1.151015612224756 0.8870960934968134 0  1.375685881762903 0.4804732783303666 0  -1.415943361343542 0.3602611147923025 0  1.467490196085351 -0.07831618200356984 0  -1.453588026812254 -0.22638638580994 0  0.5808498543797055 -1.356722450173933 0  1.322844183934653 -0.652050223127045 0  -0.1694594185535545 -1.464008818181664 0  -1.279257371909697 -0.7236830982826439 0  -0.7155652204341175 -1.292263562760785 0  0.9978151266083268 -1.085139762142122 0  -0.4747730025792037 -0.1062213695591513 0  0.4807350592949206 -0.06953452385939669 0  -0.2934587704844439 0.3407485722190579 0  0.274040652066491 0.3550598532398567 0  0.1984267874444471 -0.4550313732073094 0  -0.9686519958165992 -0.9806868659912833 0  -0.2370036724125658 -0.4724908314208944 0  0.225823221879922 -1.550469436130241 0  1.371226194795887 0.8516962109107814 0  1.076959396601003 0.6745608975747273 0  0.1969750046677152 1.588085727186125 0  0.1560523879618864 1.239941187606932 0  -0.4874054147608694 1.550918393104826 0  -1.059252137750021 1.234129163372436 0  -1.462410357510125 0.715130965485285 0  -1.629238126271803 0.08096867040014556 0  1.58014230183743 -0.411421798406087 0  0.9396797842344446 1.347455504852308 0  1.618516861386462 0.2350559941854344 0  -0.4921412636714685 -1.570230613335779 0  0.008488788457449192 0.5698400783526578 0  0.6822036005478906 1.057610667670352 0  -1.035187499026304 -1.291897908564353 0  1.314647528366023 -1.018633835511356 0  -0.591997002099765 0.1941921612582067 0  0.517721349122215 -0.3921915623260588 0  -1.554916179891919 -0.5392651628522378 0  -1.28543489786734 -1.043340320472894 0  0.2913437708877436 -1.248516168938083 0  0.5750673439959881 0.2356837734901987 0  -0.3942844810369314 1.161024174690303 0  -1.142381340412221 0.5512569346985317 0  1.252993930627247 -0.3317597782494806 0  0.9626044533314196 -1.383865621579683 0  -1.308973549807223 0.0570667698034013 0  -0.8211633924048565 0.947591643647643 0  -0.5463856138325703 -0.3969424825202318 0  -0.4049223293647485 -1.221193779396384 0  1.248453579666248 0.138170833478539 0  -0.01154489994919575 -0.6690237727445664 0  1.024746947437845 -0.7726965638065818 0  0.7165616237638708 1.528392017925478 0  -0.008033809923929817 0.283016751914727 0  0.4982220064757037 -1.626995202264475 0  -1.207352657938405 -0.4219391694447502 0  0.6921777209790262 -1.075386738668083 0  1.285347443968039 1.112034322830714 0  -0.1228578638559547 1.162862634296439 0  -0.1736418143455499 1.705808244404911 0  0.4027186857171769 1.098224277207434 0  -0.8966836252689518 1.449080438033896 0  0.01389936801168108 -1.25214576441691 0  8.812061222737486e-06 -1.711256472020239 0  0.8471083985733888 0.822932850623495 0  1.567496118569903 0.6696333891142247 0  -1.401604005692123 0.9745465139356939 0  0.4658283406623452 1.637966011026311 0  -1.630763061449733 0.5138759613247144 0  1.132843324488524 0.3847805387303829 0  -1.166024041904914 0.2856998351935307 0  1.703898279557765 -0.1836394764974605 0  -0.9511710148215679 0.7241810373086272 0  -0.7024610559377107 -1.024579369183355 0  -1.689066874756162 -0.3232076868958822 0  -0.2534577027284717 0.5980049893723242 0  -0.02580398502955176 -0.2983515745998491 0  1.580902611339842 -0.6671634084824867 0  0.7604200655481328 -1.539756492962294 0  -0.8412450088300736 -1.516384756318713 0  -0.2724873278664532 -1.697192661246133 0  -1.48142770641645 -0.8802444626615428 0  -1.007696403236399 -0.7168186024815899 0  1.196584852624404 -1.239103528269556 0  1.098302929044467 -0.5328076283146879 0  -0.7103501001803133 -0.02798302009985006 0  0.3104201861918588 0.5958584229244805 0  0.7184967781707098 -0.01577324962716518 0  -0.2244473264277637 -0.1425558089152027 0  -0.2107917017718994 0.1063367208130618 0  -1.208273201339902 -0.1730985945385083 0  -0.5236463606839084 0.4333136407335503 0  0.3938931826717331 -0.6059246071962799 0  0.3227183738650191 -0.2492211255916731 0  0.2520961745049074 0.08417845027992038 0  -0.6037647003804056 1.04616220482204 0  1.23071341776679 -0.09776235018072038 0  0.8482572301432356 -0.9138821350273393 0  0.7149261520924156 1.297481601230395 0  -0.4317630145912424 -0.5999917568184946 0  0.4834443025634079 0.4453387611647462 0  -1.282946216999529 1.217717379927576 0  1.504247709757375 -0.8852144148325628 0  -0.6984465540012571 1.625921804708868 0  1.712000178484852 0.4413966267541987 0  0.4651133247205952 -1.102698023482761 0  -1.768703363478126 -0.09131278219209399 0  -1.752167890310947 0.2666175673186101 0  -0.2335841161296973 -0.7067976385586623 0  0.6410285708856953 -0.2166852384748676 0  1.165283205778857 1.308030056943116 0  1.65698819184065 0.02466435713014211 0  -0.1
[...]
<PointData  Vectors="f_1123-0"> 
<DataArray  type="Float64"  Name="f_1123-0"  NumberOfComponents="3" format="ascii">-2.5472128703255908e-02 -1.2011972727776554e-01 0.0000000000000000e+00  -2.2482421645770119e-03 -1.3483542433016540e-01 0.0000000000000000e+00  2.2921237595007200e-02 -1.4417994420417812e-01 0.0000000000000000e+00  4.9528767811240680e-02 -1.5095798482315900e-01 0.0000000000000000e+00  7.8404495271133745e-02 -1.5319774152436569e-01 0.0000000000000000e+00  1.0538913453252577e-01 -1.4574834050292051e-01 0.0000000000000000e+00  1.2315952306227414e-01 -1.2510141728400667e-01 0.0000000000000000e+00  1.3305865694874514e-01 -9.6351904889492093e-02 0.0000000000000000e+00  1.2961811688421518e-01 -6.3247911741654658e-02 0.0000000000000000e+00  1.1852612271765722e-01 -3.3552811133990994e-02 0.0000000000000000e+00  1.0463900727849344e-01 -9.0770022777425068e-03 0.0000000000000000e+00  8.7975112137496869e-02 1.2796326099179802e-02 0.0000000000000000e+00  6.3760966779278699e-02 3.0671726009009456e-02 0.0000000000000000e+00  4.0834075960192485e-02 4.3983771140276934e-02 0.0000000000000000e+00  1.8349084376402248e-02 5.1459280621108973e-02 0.0000000000000000e+00  -9.5731076014990615e-03 5.3743179880586758e-02 0.0000000000000000e+00  -3.6038010324368840e-02 4.6873468760361567e-02 0.0000000000000000e+00  -6.2367271671239628e-02 3.3879888859506824e-02 0.0000000000000000e+00  -8.2585613157293333e-02 1.6639155300616656e-02 0.0000000000000000e+00  -1.0277280059859564e-01 -4.8520291853786923e-03 0.0000000000000000e+00  -1.2003215959168848e-01 -3.1038147707921383e-02 0.0000000000000000e+00  -1.3058952950441935e-01 -5.9821154437935418e-02 0.0000000000000000e+00  -1.3392697412431870e-01 -8.9303095698761506e-02 0.0000000000000000e+00  -1.2638557336142042e-01 -1.1851975294815481e-01 0.0000000000000000e+00  -1.1190167184905900e-01 -1.4192929928752324e-01 0.0000000000000000e+00  -8.3558318502847589e-02 -1.4781342359483604e-01 0.0000000000000000e+00  -5.6481915725635275e-02 -1.4947899977100232e-01 0.0000000000000000e+00  -2.9174173007780441e-02 -1.4655523048888411e-01 0.0000000000000000e+00  -2.1712578635298394e-03 -1.3475308375728362e-01 0.0000000000000000e+00  2.1915448485945212e-02 -1.2241527426210817e-01 0.0000000000000000e+00  4.2250695549267511e-02 -1.0760361998823689e-01 0.0000000000000000e+00  5.9662369168897243e-02 -9.1920138381350464e-02 0.0000000000000000e+00  7.2706721050165818e-02 -7.0122118091500929e-02 0.0000000000000000e+00  8.0934346443561747e-02 -5.3151034777870997e-02 0.0000000000000000e+00  8.7812066214381118e-02 -3.6824646944219809e-02 0.0000000000000000e+00  8.9467915787602798e-02 -1.7205641849832316e-02 0.0000000000000000e+00  8.7066642370060274e-02 9.6473752796139424e-04 0.0000000000000000e+00  8.2853537946310063e-02 1.7360187499244881e-02 0.0000000000000000e+00  7.3608028035349451e-02 3.3123252864895862e-02 0.0000000000000000e+00  6.4616871905343057e-02 4.5734137642323328e-02 0.0000000000000000e+00  5.3711387209108140e-02 5.6246993422919431e-02 0.0000000000000000e+00  4.1195372187486340e-02 6.3563820009293656e-02 0.0000000000000000e+00  2.5513378042054554e-02 6.7589240896496885e-02 0.0000000000000000e+00  1.0884114840904355e-02 6.9056277889178855e-02 0.0000000000000000e+00  -3.5133827634185625e-03 7.1365085118800256e-02 0.0000000000000000e+00  -2.0121314137908006e-02 7.0268895430188105e-02 0.0000000000000000e+00  -3.6384103956248297e-02 6.5642259783310467e-02 0.0000000000000000e+00  -4.9320467477158271e-02 5.8909645551717835e-02 0.0000000000000000e+00  -6.2854138034549784e-02 4.8727982826098283e-02 0.0000000000000000e+00  -7.1917401581855459e-02 3.7238389895655352e-02 0.0000000000000000e+00  -8.1597563261596395e-02 2.1817542024478841e-02 0.0000000000000000e+00  -8.7848172275968417e-02 4.1397072208887989e-03 0.0000000000000000e+00  -8.9300523173840296e-02 -1.2933817173162299e-02 0.0000000000000000e+00  -8.6802993849141599e-02 -2.9945439831269863e-02 0.0000000000000000e+00  -8.2347247224908354e-02 -4.9581994567542954e-02 0.0000000000000000e+00  -7.2942043015435595e-02 -6.6451539127875714e-02 0.0000000000000000e+00  -6.0315269098825404e-02 -8.4556080309699300e-02 0.0000000000000000e+00  -4.4781186436970592e-02 -1.0245705686353920e-01 0.0000000000000000e+00  1.1152346980161484e-01 8.0833623847742748e-06 0.0000000000000000e+00  1.1095024736018490e-01 1.1272062732659209e-02 0.0000000000000000e+00  1.0924850946283562e-01 2.2440368668503109e-02 0.0000000000000000e+00  1.0641906102682552e-01 3.3369986134750514e-02 0.0000000000000000e+00  1.0244309744403873e-01 4.4079178266931571e-02 0.0000000000000000e+00  9.7960032356554913e-02 5.3260460538728911e-02 0.0000000000000000e+00  9.1398111118108125e-02 6.3614121186257200e-02 0.0000000000000000e+00  8.3980174761629264e-02 7.3343090998681221e-02 0.0000000000000000e+00  7.6849075863804572e-02 8.0829758199373644e-02 0.0000000000000000e+00  6.8989524569031499e-02 8.7595472568733110e-02 0.0000000000000000e+00  5.8009088332117202e-02 9.5215780134176031e-02 0.0000000000000000e+00  5.0120138317713350e-02 9.9594181550529598e-02 0.0000000000000000e+00  3.7666864549282759e-02 1.0493977232228147e-01 0.0000000000000000e+00  2.9044020707098359e-02 1.0764568265867619e-01 0.0000000000000000e+00  1.5962988746665435e-02 1.1036607202807897e-01 0.0000000000000000e+00  5.6512546342802903e-03 1.1139245562984212e-01 0.0000000000000000e+00  -4.7097282667074919e-03 1.1140807861644633e-01 0.0000000000000000e+00  -1.7826946735077804e-02 1.1007484318112541e-01 0.0000000000000000e+00  -2.7957092740467520e-02 1.0797247007728329e-01 0.0000000000000000e+00  -3.7835597127757185e-02 1.0489147380123354e-01 0.0000000000000000e+00  -4.9980538127560606e-02 9.9671400129614979e-02 0.0000000000000000e+00  -5.8887773262078578e-02 9.4731999040614995e-02 0.0000000000000000e+00  -6.8388722211946473e-02 8.8112400864724008e-02 0.0000000000000000e+00  -7.6113500309308135e-02 8.1474720261973596e-02 0.0000000000000000e+00  -8.5336399501962187e-02 7.1743075419914842e-02 0.0000000000000000e+00  -9.0846490739911606e-02 6.4620985091347533e-02 0.0000000000000000e+00  -9.7406157838206733e-02 5.4048506899313731e-02 0.0000000000000000e+00  -1.0283610253688748e-01 4.3085243798166258e-02 0.0000000000000000e+00  -1.0640386294292947e-01 3.3370736372027053e-02 0.0000000000000000e+00  -1.0900817935531125e-01 2.3365411122651624e-02 0.0000000000000000e+00  -1.1100182055080869e-01 1.0321579167134925e-02 0.0000000000000000e+00  -1.1150962351362068e-01 -2.4326137942399264e-06 0.0000000000000000e+00  -1.1099440736448976e-01 -1.0353341188771006e-02 0.0000000000000000e+00  -1.0899277049953393e-01 -2.3393154219642512e-02 0.0000000000000000e+00  -1.0643103787544574e-01 -3.3271479702958261e-02 0.0000000000000000e+00  -1.0247543173855295e-01 -4.3994724424179482e-02 0.0000000000000000e+00  -9.7509618459489383e-02 -5.4117912727573464e-02 0.0000000000000000e+00  -9.1532378454388441e-02 -6.3712973694438652e-02 0.0000000000000000e+00  -8.4625172626246054e-02 -7.2645551978440484e-02 0.0000000000000000e+00  -7.6850018406385848e-02 -8.0831513252845544e-02 0.0000000000000000e+00  -6.8166139646848228e-02 -8.8267174560015621e-02 0.0000000000000000e+00  -5.9806631097891388e-02 -9.4094244050927922e-02 0.0000000000000000e+00  -4.9040729517867435e-02 -9.9981426469367363e-02 0.0000000000000000e+00  -3.7800867948436158e-02 -1.0489098485796713e-01 0.0000000000000000e+00  -2.8074415445519051e-02 -1.0794432317257378e-01 0.0000000000000000e+00  -1.6888771883411379e-02 -1.1025764979205040e-01 0.0000000000000000e+00  -5.5292680742573940e-03 -1.1139366962834346e-01 0.0000000000000000e+00  4.6769145956217844e-03 -1.1140257455976645e-01 0.0000000000000000e+00  1.6860416702485555e-02 -1.1008950194445642e-01 0.0000000000000000e+00  2.9050030767766417e-02 -1.0763685856785052e-01 0.0000000000000000e+00  3.7658676367324624e-02 -1.0493368817230903e-01 0.0000000000000000e+00  4.9961832125395157e-02 -9.9672583899197295e-02 0.0000000000000000e+00  5.8896620147160954e-02 -9.4712229608072018e-02 0.0000000000000000e+00  6.8272545354652006e-02 -8.8200831439607413e-02 0.0000000000000000e+00  7.6922311501491120e-02 -8.0748015724054878e-02 0.0000000000000000e+00  8.3954763480511521e-02 -7.3349142481754170e-02 0.0000000000000000e+00  9.1389180798886624e-02 -6.3601426883438214e-02 0.0000000000000000e+00  9.8014700938492141e-02 -5.3088209491649649e-02 0.0000000000000000e+00  1.0197415436009723e-01 -4.5009504999298594e-02 0.0000000000000000e+00  1.0627511104085526e-01 -3.3360859026694133e-02 0.0000000000000000e+00  1.0938785954244992e-01 -2.1493301892332922e-02 0.0000000000000000e+00  1.1092604932661453e-01 -1.1409794706076400e-02 0.0000000000000000e+00  1.1146438865458305e-04 1.8578693178113440e-01 0.0000000000000000e+00  -1.5048849893915986e-02 8.4454860136726040e-02 0.0000000000000000e+00  5.1750212783663957e-02 7.1363540609013218e-02 0.0000000000000000e+00  -7.2334582181329848e-02 5.7526108082418877e-02 0.0000000000000000e+00  9.8196192238062141e-02 2.0755191753588070e-02 0.0000000000000000e+00  -1.0365803853294542e-01 2.1387618996959643e-03 0.0000000000000000e+00  9.8675453384582043e-02 -4.5694317109526213e-02 0.0000000000000000e+00  -9.3173391346085141e-02 -5.6067089494392666e-02 0.0000000000000000e+00  6.3207569380057477e-02 -8.0462041438915874e-02 0.0000000000000000e+00  -5.1190050743753608e-02 -8.1568893865549413e-02 0.0000000000000000e+00  7.2797985623169349e-03 -7.7008834983092786e-02 0.0000000000000000e+00  2.9117104176359248e-02 -7.6159436297326411e-02 0.0000000000000000e+00  -3.9725531831826596e-04 -7.0681904903564269e-02 0.0000000000000000e+00  -2.7665021756679588e-02 -7.5238757892343591e-02 0.0000000000000000e+00  -1.2028603633697642e-02 -8.0220930295348880e-02 0.0000000000000000e+00  2.4287053725372931e-02 -7.8761190686146690e-02 0.0000000000000000e+00  -4.1357687511198060e-02 8.8704449242031400e-02 0.0000000000000000e+00  4.5459597673930964e-02 8.5118862045972701e-02 0.0000000000000000e+00  -4.6242870153677541e-02 1.1501092429808846e-01 0.0000000000000000e+00  4.4521284801451427e-02 1.1579834474406507e-01 0.0000000000000000e+00  -1.7070539970440227e-02 1.6855327865577163e-01 0.0000000000000000e+00  -7.0460417657953035e-04 -8.1069428957230794e-02 0.0000000000000000e+00  2.1522393123795142e-02 1.5822860624022872e-01 0.0000000000000000e+00  6.2463008704432277e-03 -8.4352530606473838e-02 0.0000000000000000e+00  1.0961390944635263e-01 7.8511488607370689e-03 0.0000000000000000e+00  9.7018793016014016e-02 -2.9976939651242707e-02 0.0000000000000000e+00  1.9116581019259060e-02 9.5896789582501321e-02 0.0000000000000000e+00  1.8281446780797531e-02 6.7560128151715568e-02 0.0000000000000000e+00  -4.5035412260089246e-02 9.0747601931710928e-02 0.0000000000000000e+00  -9.2936607085466763e-02 5.1819605706374783e-02 0.0000000000000000e+00  -1.1042526654921160e-01 -4.9701003179195256e-03 0.0000000000000000e+00  -9.4803829035489146e-02 -5.0872522689186073e-02 0.0000000000000000e+00  7.3838401927173364e-02 -6.4140672820137218e-02 0.0000000000000000e+00  8.2436561134904440e-02 6.5516465948750394e-02 0.0000000000000000e+00  1.0118704081117150e-01 -4.1942995362130323e-02 0.0000000000000000e+00  -2.0154594859324006e-02 -9.3813808853381891e-02 0.0000000000000000e+00  1.7744620262278299e-03 1.1051981783259163e-01 0.0000000000000000e+00  7.6032953521214502e-02 3.5708920013774167e-02 0.0000000000000000e+00  -5.1880370026689049e-02 -8.3627070334180501e-02 0.0000000000000000e+00  6.5400453939021025e-02 -6.9858825294533619e-02 0.0000000000000000e+00  -7.0350271971711065e-02 3.8428667943413132e-02 0.0000000000000000e+00  -2.5820807093609441e-02 5.2564551248179409e-02 0.0000000000000000e+00  -7.2163035122166277e-02 -6.2856568379610650e-02 0.0000000000000000e+00  -6.3515868384561053e-02 -7.1451235845549507e-02 0.0000000000000000e+00  -1.9136240252176175e-02 -3.9805141997580888e-02 0.0000000000000000e+00  7.4004248451456908e-02 4.1913881657445494e-02 0.0000000000000000e+00  -4.7040312121083658e-02 5.7684260997155359e-02 0.0000000000000000e+00  -9.2296703812416253e-02 -4.8663263139610217e-02 0.0000000000000000e+00  3.6824274578298099e-03 -1.0713878217457376e-01 0.0000000000000000e+00  5.0185346983942378e-02 -8.8051203499537836e-02 0.0000000000000000e+00  -5.3127745148110417e-02 -9.6226047563426592e-02 0.0000000000000000e+00  -8.9272828544420757e-02 1.7121178320600724e-02 0.0000000000000000e+00  2.7225692469335639e-02 3.5970555782131527e-02 0.0000000000000000e+00  2.6091715694968834e-02 -4.7289597129573056e-02 0.0000000000000000e+00  5.7896314487702077e-02 -9.7066753407020159e-02 0.0000000000000000e+00  4.1675776349001640e-04 1.4895828674064981e-01 0.0000000000000000e+00  -2.9074804516065832e-02 -9.0988075848222993e-02 0.0000000000000000e+00  6.1618414531845814e-02 8.5976686567518293e-02 0.0000000000000000e+00  -9.0317674585204527e-04 1.4935281347011334e-01 0.0000000000000000e+00  2.3810225704369126e-02 -9.8222266972806449e-02 0.0000000000000000e+00  9.6213010963490265e-03 -1.0715046899301198e-01 0.0000000000000000e+00  -3.1941388732606879e-02 -7.1743712540801877e-02 0.0000000000000000e+00  1.0218005274437870e-01 4.1304655532842342e-02 0.0000000000000000e+00  -1.5359716502332496e-02 6.7528089024682103e-02 0.0000000000000000e+00  -1.4350851260404944e-02 1.0478075920552676e-01 0.0000000000000000e+00  4.9261388346683047e-02 5.3230914806216598e-02 0.0000000000000000e+00  -7.5160115623554083e-02 7.6969490715813979e-02 0.0000000000000000e+00  -1.2636046968706525e-03 -2.6606279947379109e-02 0.0000000000000000e+00  3.9461622496433067e-04 -1.0117551584960435e-01 0.0000000000000000e+00  9.1151373343526979e-02 -7.5864680070612909e-04 0.0000000000000000e+00  1.1218183887778931e-01 -9.6459425685938382e-05 0.0000000000000000e+00  -1.0772844375142807e-01 2.7539101026166326e-02 0.0000000000000000e+00  3.9921217367816030e-02 9.7521039412859820e-02 0.0000000000000000e+00  -1.1131122328728532e-01 -1.1552917260154703e-02 0.0000000000000000e+00  7.9542412567730647e-02 -7.1563237675856067e-02 0.0000000000000000e+00  -7.2095587602943906e-02 -8.5521418482605818e-02 0.0000000000000000e+00  9.4440637661396765e-02 -4.9225432039850608e-02 0.0000000000000000e+00  -9.3585329064171177e-02 -1.8800373302688533e-02 0.0000000000000000e+00  4.5953561082269015e-02 -7.5002902040104985e-02 0.0000000000000000e+00  -9.0704106059122450e-02 -5.1928677432085638e-02 0.0000000000000000e+00  -4.0932724801235221e-02 9.3471272132351152e-02 0.0000000000000000e+00  -1.2408283917872845e-03 1.9799664659719707e-01 0.0000000000000000e+00  8.0766886876925334e-02 -5.9588527657072975e-02 0.0000000000000000e+00  3.9409497836362023e-02 -9.5539577443658652e-02 0.0000000000000000e+00  -4.5232545998030081e-02 -9.4457721208125192e-02 0.0000000000000000e+00  -1.2685750551902729e-02 -1.0138523845653417e-01 0.0000000000000000e+00  -7.8062562773183228e-02 -6.3465227530861493e-02 0.0000000000000000e+00  4.3759581710075567e-02 -1.0145613954716222e-01 0.0000000000000000e+00  6.6525027184287558e-02 -7.8818263418442946e-02 0.0000000000000000e+00  -4.1004222815331337e-02 -1.1295334429854158e-01 0.0000000000000000e+00  -5.1193281316529345e-02 -2.2271778222857991e-02 0.0000000000000000e+00  5.1388654089572494e-02 8.4038289561676777e-02 0.0000000000000000e+00  5.2346190087744222e-02 -2.5643202287311598e-02 0.0000000000000000e+00  -2.0264738625651084e-02 1.7143926127211914e-01 0.0000000000000000e+00  -3.0456478740855303e-02 1.5418398561631122e-01 0.0000000000000000e+00  -8.3560986814859156e-03 -1.1778418151140474e-01 0.0000000000000000e+00  -7.4037590112287652e-02 5.4032930229092183e-02 0.0000000000000000e+00  -7.8473893464448496e-02 7.5847830738485722e-02 0.0000000000000000e+00  1.2726887938045215e-02 1.4779944655881588e-01 0.0000000000000000e+00  3.5850518437920080e-02 1.4803423571731103e-01 0.0000000000000000e+00  -7.0487776534378446e-02 3.8551211825435645e-02 0.0000000000000000e+00  2.3902680307917094e-02 -1.1480954710947264e-01 0.0000000000000000e+00  -4.1211732722637825e-02 -8.9602391020246988e-02 0.0000000000000000e+00  7.1913280451272696e-02 6.1110431364564823e-02 0.0000000000000000e+00  8.2373812156797330e-02 6.3457033273211158e-02 0.0000000000000000e+00  7.1142874591346050e-02 6.1622941162536957e-02 0.0000000000000000e+00  -9.6763360456692621e-02 5.4936034318713363e-02 0.0000000000000000e+00  8.0743715812816003e-02 -6.2638502299310450e-02 0.0000000000000000e+00  -5.5013182285660940e-02 9.4159367026263943e-02 0.0000000000000000e+00  1.1186685563230860e-01 -8.5198210331466837e-03 0.0000000000000000e+00  -4.8150276837853473e-02 -4.2306311236402362e-02 0.0000000000000000e+00  -1.0269858439084796e-01 -3.7221533385078449e-02 0.0000000000000000e+00  -1.1013805118345354e-01 -1.8736405446818129e-02 0.0000000000000000e+00  5.3792875003735738e-02 1.0674512184664917e-01 0.0000000000000000e+00  1.7996467458901436e-02 -5.7336956073946871e-03 0.0000000000000000e+00  9.0319442738850703e-02 6.3171552727052951e-02 0.0000000000000000e+00  9.5351814197153398e-02 -4.9621311556935867e-02 0.0000000000000000e+00  1.4773465787296712e-02 -3.3049179525105450e-02 0.0000000000000000e+00  -4.3142958595565141e-02 1.2743058258716283e-01 0.0000000000000000e+00  -9.3974484751650628e-03 1.3022710967015474e-01 0.0000000000000000e+00  1.7419668236262731e-02 -8.1098219613487177e-02 0.0000000000000000e+00  -4.5002613888256845e-03 -4.8245507313555640e-02 0.0000000000000000e+00  1.6752261390946831e-02 -1.0442840720721283e-01 0.0000000000000000e+00  5.8841347636605116e-03 -7.7096694245039885e-02 0.0000000000000000e+00  5.1982768228627494e-04 -6.7649316345635160e-02 0.0000000000000000e+00  6.9753221843106408e-02 -1.0186166348281968e-01 0.0000000000000000e+00  -1.1434963353957165e-02 -7.9620342196046662e-02 0.0000000000000000e+00  -2.1959395487781672e-02 -7.5763563701355965e-02 0.0000000000000000e+00  -5.3727818141247524e-02 7.0053524827653160e-02 0.0000000000000000e+00  4.1782097445884391e-03 1.0733236083988433e-01 0.0000000000000000e+00  -7.1180986993957571e-02 -7.8258479097482667e-02 0.0000000000000000e+00  -5.3284937387660727e-02 1.0452003933366980e-01 0.0000000000000000e+00  9.8798076815249849e-03 1.8781815562431026e-01 0.0000000000000000e+00  8.6679352786262348e-02 4.0336576086840166e-02 0.0000000000000000e+00  -5.9627451749566990e-02 -9.0303248828452934e-02 0.0000000000000000e+00  8.5416466668864183e-02 -6.6121036263542265e-02 0.0000000000000000e+00  -2.7375711954967068e-02 1.0560548378506579e-01 0.0000000000000000e+00  1.0522916977403492e-01 1.2533493445246017e-02 0.0000000000000000e+00  2.6231369071272340e-02 -7.4778684791813571e-02 0.0000000000000000e+00  -2.0864908985411414e-02 1.2462919167731852e-01 0.0000000000000000e+00  7.5397584831869962e-03 8.3167420339135822e-02 0.0000000000000000e+00  2.4191655348652551e-02 1.0572911597518075e-01 0.0000000000000000e+00  3.5642714257066006e-02 8.5688411229461095e-02 0.0000000000000000e+00  -9.7281477864201632e-02 2.3438029346912647e-02 0.0000000000000000e+00  -8.6268794932787968e-02 3.9509097382858384e-02 0.0000000000000000e+00  -3.5135374911644625e-02 7.4550293622142730e-02 0.0000000000000000e+00  1.0766244038152477e-01 -1.8953788758521963e-02 0.0000000000000000e+00  1.0502489693262149e-01 3.8804354218515393e-02 0.0000000000000000e+00  1.0944756207524292e-01 2.5040158211564422e-02 0.0000000000000000e+00  -2.3548107547512083e-03 1.8524213215158361e-01 0.0000000000000000e+00  -3.7180827465695260e-02 -1.0049372021805046e-01 0.0000000000000000e+00  4.9013602104555250e-02 -6.9072180218686469e-02 0.0000000000000000e+00  -2.5074224938979304e-03 9.6787275841163395e-02 0.0000000000000000e+00  -3.1160414478003245e-02 -7.9169252717806171e-02 0.0000000000000000e+00  -3.2513787084665041e-02 -1.1669901262553382e-01 0.0000000000000000e+00  -4.0467569635895963e-02 1.0176904940605667e-01 0.0000000000000000e+00  -6.5935660193364734e-02 7.7715486915828719e-02 0.0000000000000000e+00  -1.2179291264175158e-02 8.8593338900600865e-02 0.0000000000000000e+00  -2.8168078648191555e-02 9.3418055947027054e-02 0.0000000000000000e+00  2.4136375198702497e-02 8.7689586347915696e-02 0.0000000000000000e