<?xml version="1.0"?>
<VTKFile type="UnstructuredGrid"  version="0.1"  >
<UnstructuredGrid>
<Piece  NumberOfPoints="1198" NumberOfCells="2284">
<Points>
<DataArray  type="Float64"  NumberOfComponents="3"  format="ascii">-1.011891698170347 0.2030150149319873 0  -1.009821260375516 0.09418426335819999 0  -0.9955609884269403 -0.0137841358519042 0  -0.9693047768521514 -0.1195407708703646 0  -0.9313512033627875 -0.2217571660450305 0  -0.8823359554724547 -0.3192423717728347 0  -0.8229180258220659 -0.4107144805062241 0  -0.7537671264550695 -0.4949073697081641 0  -0.675931849587013 -0.570614414063601 0  -0.591085422236004 -0.637136193481998 0  -0.4999383297300118 -0.6936496082168699 0  -0.4035204587438504 -0.7401694133623167 0  -0.3031987936773159 -0.7766248897058853 0  -0.1996778089771425 -0.8025568693570007 0  -0.09446456185115791 -0.8178332868589095 0  0.01159728383451531 -0.8226225284544622 0  0.1175147462509493 -0.815190492663559 0  0.2223376517190694 -0.7971938071680572 0  0.3250375063967105 -0.7683167609851123 0  0.4244293054238787 -0.7291130904502848 0  0.5194855773669653 -0.6798867477837587 0  0.6090455886874074 -0.620960616183273 0  0.6921959402199331 -0.5523164047796888 0  0.7678476741788585 -0.474456241347162 0  0.8346675895821531 -0.388444057622425 0  0.8917711259718695 -0.2955253952768223 0  0.9382751195948673 -0.196984900980142 0  0.9735472894598346 -0.0938535060498747 0  0.9971930223146541 0.0124796117227546 0  1.00867719101267 0.1208163464199171 0  1.008082182913973 0.2296354314069644 0  0.9951812030101628 0.3376576065704988 0  0.9703360860484908 0.4435762037975512 0  0.9338275732845944 0.5460753667497401 0  0.8861701799000394 0.6438039734482488 0  0.8278339476186695 0.7356103667922143 0  0.7600101447126795 0.8207271811515616 0  0.6831771864268387 0.8977757845223069 0  0.5986309442338363 0.9662344629184495 0  0.5070680200665354 1.025101314773149 0  0.409688313301628 1.073879207673804 0  0.3077607199503365 1.112092696878956 0  0.2023682585676967 1.139535860124812 0  0.09458957773477888 1.155653739363538 0  -0.01435640533838209 1.159812713812918 0  -0.1229844523602602 1.15234457051446 0  -0.2302557268352428 1.13347045692873 0  -0.3349425295827874 1.103467732518944 0  -0.4357705705326768 1.062518093865556 0  -0.5317332820163987 1.011238574673271 0  -0.6216643431118561 0.9498686970305229 0  -0.7044821013791724 0.8793442486276718 0  -0.779167809934043 0.8003041383649524 0  -0.8447975744374585 0.7135814538982616 0  -0.9006364252187016 0.6202283941360655 0  -0.9456475167469857 0.5212227953892435 0  -0.9794842079177718 0.4178650174430957 0  -1.001745267652895 0.3113538438888055 0  2.406721652348931 0 0  2.398501477714334 0.1987454987850648 0  2.373897105938445 0.3961333642881431 0  2.333076609828998 0.5908152372391863 0  2.276318834765859 0.7814612430411164 0  2.204011493904336 0.9667690761617999 0  2.116648519701194 1.145472896201352 0  2.014826689855128 1.316351974865611 0  1.899241550709965 1.478239034778196 0  1.770682665967857 1.630028223168584 0  1.630028223168584 1.770682665967856 0  1.478239034778197 1.899241550709965 0  1.316351974865611 2.014826689855128 0  1.145472896201351 2.116648519701194 0  0.9667690761618002 2.204011493904336 0  0.7814612430411167 2.276318834765859 0  0.5908152372391865 2.333076609828998 0  0.3961333642881428 2.373897105938445 0  0.198745498785065 2.398501477714334 0  1.473691983993873e-16 2.406721652348931 0  -0.1987454987850647 2.398501477714334 0  -0.3961333642881429 2.373897105938445 0  -0.5908152372391857 2.333076609828998 0  -0.781461243041116 2.276318834765859 0  -0.9667690761617999 2.204011493904336 0  -1.145472896201352 2.116648519701194 0  -1.316351974865612 2.014826689855127 0  -1.478239034778196 1.899241550709965 0  -1.630028223168584 1.770682665967857 0  -1.770682665967856 1.630028223168584 0  -1.899241550709965 1.478239034778197 0  -2.014826689855127 1.316351974865612 0  -2.116648519701193 1.145472896201352 0  -2.204011493904337 0.9667690761617999 0  -2.276318834765859 0.781461243041116 0  -2.333076609828998 0.5908152372391872 0  -2.373897105938445 0.3961333642881434 0  -2.398501477714334 0.1987454987850646 0  -2.406721652348931 2.947383967987747e-16 0  -2.398501477714334 -0.198745498785064 0  -2.373897105938445 -0.3961333642881428 0  -2.333076609828998 -0.5908152372391855 0  -2.276318834765859 -0.7814612430411163 0  -2.204011493904337 -0.9667690761617994 0  -2.116648519701194 -1.14547289620135 0  -2.014826689855127 -1.316351974865612 0  -1.899241550709966 -1.478239034778195 0  -1.770682665967856 -1.630028223168585 0  -1.630028223168584 -1.770682665967856 0  -1.478239034778197 -1.899241550709965 0  -1.316351974865611 -2.014826689855128 0  -1.145472896201353 -2.116648519701193 0  -0.966769076161799 -2.204011493904337 0  -0.781461243041117 -2.276318834765859 0  -0.5908152372391862 -2.333076609828998 0  -0.3961333642881425 -2.373897105938445 0  -0.1987454987850658 -2.398501477714334 0  -4.42107595198162e-16 -2.406721652348931 0  0.1987454987850649 -2.398501477714334 0  0.3961333642881416 -2.373897105938445 0  0.5908152372391854 -2.333076609828998 0  0.7814612430411162 -2.276318834765859 0  0.9667690761617982 -2.204011493904337 0  1.145472896201352 -2.116648519701193 0  1.316351974865611 -2.014826689855128 0  1.478239034778196 -1.899241550709965 0  1.630028223168585 -1.770682665967856 0  1.770682665967855 -1.630028223168585 0  1.899241550709966 -1.478239034778195 0  2.014826689855128 -1.316351974865611 0  2.116648519701193 -1.145472896201353 0  2.204011493904337 -0.9667690761617991 0  2.276318834765859 -0.7814612430411171 0  2.333076609828997 -0.5908152372391885 0  2.373897105938445 -0.3961333642881427 0  2.398501477714334 -0.198745498785066 0  -0.0007592203413405163 0.1688164712524836 0  -0.07721988574426905 -1.612744907112714 0  0.7137040192895311 -1.459904905801984 0  -0.8341842728967694 -1.399941841590494 0  1.313747600830276 -0.9986614472457281 0  -1.428322724765699 -0.8510956085625263 0  1.648102172245522 -0.3565866665032184 0  -1.701761519364203 -0.07038537708337671 0  1.688855076812253 0.3303946711037746 0  -1.628089192291792 0.5989937663454306 0  1.42727345822096 1.019053662199732 0  -1.31462619987563 1.16772379085896 0  0.9082475836986696 1.524236114555208 0  -0.7821487607081827 1.595287808099266 0  0.2409395437959249 1.765869953278468 0  -0.2971576657546695 1.839834249077073 0  -0.5034148027903187 0.1061435821876602 0  0.5021681897370838 0.2239960943602951 0  0.2914906120432882 -0.2358414104900679 0  -0.2969804250146427 0.5706559406556923 0  0.2040611541052626 0.6215307786105616 0  -0.5445232316321093 -1.822290181606131 0  0.3899104393897661 -1.85956815468485 0  -1.340685192217668 -1.352233266587381 0  1.249812993360823 -1.475651412833565 0  -1.838695623264845 -0.547403404314002 0  1.754400130003066 -0.857673961673155 0  0.2680886983106759 -1.276788805342805 0  -0.3827130024240255 -1.24671303619742 0  -0.1996949377201342 -0.2827202989323661 0  0.8504304735639612 -1.016848036811244 0  -0.9094412940499339 -0.9558186888897348 0  1.982141058838917 -0.08198196061628374 0  -1.419202194825311 -0.4096609855988868 0  1.251210789773472 -0.5580025413200236 0  1.853979345011207 0.7234249852926727 0  -1.945959607735761 0.2952350169136622 0  -1.711848768114519 1.020040459906871 0  -0.08330296474577402 -2.014079993993369 0  0.7868103300956742 -1.850128054843268 0  -0.9372499488038201 -1.781131763080814 0  1.337805374587352 1.446349449968109 0  0.6554490070482526 1.868347451907782 0  1.421097492467746 0.001579072953019935 0  -1.204831060425794 1.576336686936746 0  1.575325927631333 -1.276502592467926 0  -1.116425440891012 -0.6435455873263549 0  -1.66801313318703 -1.151243718092317 0  -1.424818274867195 0.2378778448192668 0  -0.384830812638547 1.475180306554084 0  1.363264938823409 0.6007311971866037 0  -1.26909954667824 0.7718815538725449 0  -0.9178137752941251 1.218892601790993 0  1.03088844892997 1.131022136039707 0  1.964024470221188 -0.5513869986171797 0  0.5093025107811852 1.464742011221454 0  -2.031850964800391 -0.2337923484963974 0  -0.02594171314396312 1.521492052751321 0  2.040336603337925 0.2698893702925297 0  0.00487813865332809 2.042837081519858 0  -1.932376032018305 0.7573160064816168 0  -0.649629964843221 1.935669887463263 0  -1.601922286325148 1.332416865344452 0  1.698337577055371 1.21258972314033 0  -0.05845997233264991 -1.286588303452875 0  -0.6121804868889875 0.4326072710526205 0  0.6078456216219539 -0.1026011276741341 0  -1.374922048256181 -0.08548317630980361 0  1.166403545868467 1.724524453775609 0  0.5167678415775578 -1.051624742979288 0  -0.532648578118773 -0.2427994847894487 0  -1.00433624766848 1.827726943237323 0  0.5354058909350098 0.5721748244526363 0  0.3174484290196842 2.070161238850998 0  -1.742246330130701 -0.8461837421723039 0  1.143689945432768 0.8324148464036831 0  -0.0464810928620522 0.8333231543964412 0  0.04213510201252178 -0.4993754587674957 0  0.7385397544926554 1.24856219836567 0  0.9742192952409923 -0.7205175649248354 0  1.090085161875487 -1.211462067247351 0  1.389323687205781 0.3008793150232817 0  -0.669451323201036 -1.143589954987904 0  -0.5444929844420465 -1.511765506647165 0  0.9775094653051836 -1.612441926173934 0  0.2346847055855749 -1.587893661866972 0  -0.6446043985748173 1.333065734071503 0  -1.102122891505789 -1.532025265707796 0  -1.071959639429488 -1.211795309031085 0  1.542758184222473 -0.6407521577529398 0  1.362894788936765 -0.2863300861263139 0  0.205811853369238 -2.097637280955889 0  -0.3784463935239248 -2.073376144754119 0  -1.090387076347306 0.9929748300523962 0  1.696447593687382 -0.07492503173348813 0  -1.382641597599169 -1.632481849507093 0  -1.364036830953739 0.5098597247008154 0  0.9426677294762493 1.909202615328695 0  -2.138426239569668 0.08844596350570506 0  1.21871947562389 -1.753182013891 0  -0.2672806988192001 2.121574036311736 0  0.2336578855059177 1.417451820186995 0  -2.003431300851278 -0.7655393042288539 0  0.09592354721026691 -1.816082905096783 0  -0.5351581876258812 1.695115925764733 0  -1.1687
[...]
<PointData  Vectors="f_3379-0"> 
<DataArray  type="Float64"  Name="f_3379-0"  NumberOfComponents="3" format="ascii">-8.7047532152922449e-03 -7.4680599929433031e-02 0.0000000000000000e+00  7.5303458560623945e-03 -8.7892458740293167e-02 0.0000000000000000e+00  2.6963281042444328e-02 -9.7366054697254067e-02 0.0000000000000000e+00  5.0239735433944395e-02 -1.0744226038001278e-01 0.0000000000000000e+00  7.3620529696405979e-02 -1.1387993066854506e-01 0.0000000000000000e+00  9.9158711537159522e-02 -1.1385670415039773e-01 0.0000000000000000e+00  1.2491938412405645e-01 -1.1175671057180912e-01 0.0000000000000000e+00  1.4942751844897240e-01 -1.0314411479407209e-01 0.0000000000000000e+00  1.6612574116045858e-01 -8.8366467811142935e-02 0.0000000000000000e+00  1.7178881336845611e-01 -6.3007690768179483e-02 0.0000000000000000e+00  1.5849170512890959e-01 -3.6603183265066959e-02 0.0000000000000000e+00  1.4029230747907731e-01 -1.7081299932638350e-02 0.0000000000000000e+00  1.1735622128524499e-01 6.1929020507721410e-03 0.0000000000000000e+00  8.3623229563847046e-02 2.5367961554418117e-02 0.0000000000000000e+00  4.0849459196584718e-02 4.1766348659374640e-02 0.0000000000000000e+00  -1.2613747967605000e-03 5.6320014033587273e-02 0.0000000000000000e+00  -4.6217251896462155e-02 4.3318140197665805e-02 0.0000000000000000e+00  -8.6074996368503895e-02 2.7258615618762198e-02 0.0000000000000000e+00  -1.1759571973262936e-01 3.7297776283818488e-03 0.0000000000000000e+00  -1.3818963097016473e-01 -1.9265862948086215e-02 0.0000000000000000e+00  -1.5620003595173068e-01 -4.3492603595309196e-02 0.0000000000000000e+00  -1.6549498377455676e-01 -6.7067609658119240e-02 0.0000000000000000e+00  -1.6340761766393461e-01 -9.1073419462715258e-02 0.0000000000000000e+00  -1.4652713060323713e-01 -1.0613335126880624e-01 0.0000000000000000e+00  -1.2298232798706263e-01 -1.1676590559899727e-01 0.0000000000000000e+00  -9.6433270558390058e-02 -1.1992169063683090e-01 0.0000000000000000e+00  -6.8536971827529339e-02 -1.1303219514195287e-01 0.0000000000000000e+00  -4.3665663408551297e-02 -1.0387443787233987e-01 0.0000000000000000e+00  -2.4283993418035062e-02 -9.6940510560919166e-02 0.0000000000000000e+00  -6.7536579352412869e-03 -9.0249872766337141e-02 0.0000000000000000e+00  7.8862411104173129e-03 -7.8225845438647801e-02 0.0000000000000000e+00  2.1056819791912693e-02 -6.2680415413895879e-02 0.0000000000000000e+00  3.1773815694306581e-02 -5.0824991979227893e-02 0.0000000000000000e+00  3.8892505773366552e-02 -3.8156295168559236e-02 0.0000000000000000e+00  4.5337587535567166e-02 -2.6096241847393717e-02 0.0000000000000000e+00  5.1227122747485504e-02 -8.9172116218562848e-03 0.0000000000000000e+00  5.3075136761407009e-02 1.8791436449055871e-03 0.0000000000000000e+00  5.3054070396702256e-02 1.5016106467258275e-02 0.0000000000000000e+00  4.7559424559111614e-02 2.4925725173548033e-02 0.0000000000000000e+00  4.1279724217583427e-02 3.5473008993293018e-02 0.0000000000000000e+00  3.7178745755873883e-02 4.3481853552948750e-02 0.0000000000000000e+00  3.1137243874279991e-02 5.0041795778725383e-02 0.0000000000000000e+00  2.1767868548546117e-02 5.1563101854725832e-02 0.0000000000000000e+00  9.2941590276554194e-03 5.1375273397985845e-02 0.0000000000000000e+00  -4.7968474461041388e-03 5.4671651588234560e-02 0.0000000000000000e+00  -1.4283092453972621e-02 5.6436908053024863e-02 0.0000000000000000e+00  -2.0345511015538748e-02 5.5782202573833650e-02 0.0000000000000000e+00  -2.6050229869421130e-02 5.1279585995271236e-02 0.0000000000000000e+00  -3.6930137963783631e-02 4.6288535067016273e-02 0.0000000000000000e+00  -4.5501327361591043e-02 3.5152148839126318e-02 0.0000000000000000e+00  -4.7578573809795119e-02 2.6461795003745354e-02 0.0000000000000000e+00  -4.9424882810720043e-02 1.4755495131199736e-02 0.0000000000000000e+00  -4.9876993110974224e-02 2.1845574539066746e-03 0.0000000000000000e+00  -4.8511389498650026e-02 -1.0890811441166276e-02 0.0000000000000000e+00  -4.2648360270357025e-02 -2.2234238549422945e-02 0.0000000000000000e+00  -3.8228212507197816e-02 -3.5178038340546863e-02 0.0000000000000000e+00  -3.2338025348602681e-02 -4.9461914768282551e-02 0.0000000000000000e+00  -2.2169289898913126e-02 -5.9305349970840165e-02 0.0000000000000000e+00  1.3377575571810074e-01 -1.5361618201244089e-05 0.0000000000000000e+00  1.3335582620085970e-01 1.1065859898189248e-02 0.0000000000000000e+00  1.3195675350253197e-01 2.2040718171421163e-02 0.0000000000000000e+00  1.2951210112431319e-01 3.3945591594731567e-02 0.0000000000000000e+00  1.2699761996033890e-01 4.2408913231596269e-02 0.0000000000000000e+00  1.2251925592053546e-01 5.3719727853287422e-02 0.0000000000000000e+00  1.1766188555130265e-01 6.3669932840874799e-02 0.0000000000000000e+00  1.1200037269140832e-01 7.3187182375738166e-02 0.0000000000000000e+00  1.0510205961875996e-01 8.2978017434912885e-02 0.0000000000000000e+00  9.8537478242637103e-02 9.0702755447646194e-02 0.0000000000000000e+00  9.1370297333411218e-02 9.7891681610456555e-02 0.0000000000000000e+00  8.1367097450339709e-02 1.0634056245970397e-01 0.0000000000000000e+00  7.4168261528151716e-02 1.1148325652128098e-01 0.0000000000000000e+00  6.2919710483976488e-02 1.1820678754472622e-01 0.0000000000000000e+00  5.3929981772942184e-02 1.2261001708497078e-01 0.0000000000000000e+00  4.3363201303875790e-02 1.2672709064095397e-01 0.0000000000000000e+00  3.3790317314686201e-02 1.2957838103739810e-01 0.0000000000000000e+00  2.1142751446748563e-02 1.3223550400744552e-01 0.0000000000000000e+00  1.1064042487567377e-02 1.3348040492823834e-01 0.0000000000000000e+00  9.1157083056922245e-04 1.3390972509238425e-01 0.0000000000000000e+00  -1.2159605892369869e-02 1.3335272469419954e-01 0.0000000000000000e+00  -2.0953240770792414e-02 1.3226060019037836e-01 0.0000000000000000e+00  -3.2850576229194316e-02 1.2970651157561097e-01 0.0000000000000000e+00  -4.4539687620450866e-02 1.2627901700867206e-01 0.0000000000000000e+00  -5.2773630276149293e-02 1.2306883923129644e-01 0.0000000000000000e+00  -6.4693596692671898e-02 1.1723755269362073e-01 0.0000000000000000e+00  -7.2305479101363493e-02 1.1270282448364344e-01 0.0000000000000000e+00  -8.2184126126445184e-02 1.0561625715674539e-01 0.0000000000000000e+00  -9.0647477411444716e-02 9.8450262148509826e-02 0.0000000000000000e+00  -9.9248372007726959e-02 8.9852286357974362e-02 0.0000000000000000e+00  -1.0498391401811112e-01 8.3099655209439668e-02 0.0000000000000000e+00  -1.1260519321814218e-01 7.2460429383212913e-02 0.0000000000000000e+00  -1.1778444349265701e-01 6.3738751200868374e-02 0.0000000000000000e+00  -1.2225814102866289e-01 5.4624044679354632e-02 0.0000000000000000e+00  -1.2656859629106146e-01 4.3424665377795178e-02 0.0000000000000000e+00  -1.3006328445530985e-01 3.1780543949246016e-02 0.0000000000000000e+00  -1.3187321588576800e-01 2.3135697528578567e-02 0.0000000000000000e+00  -1.3331879551750780e-01 1.1061392056571168e-02 0.0000000000000000e+00  -1.3377538014119006e-01 -5.7167042422777978e-06 0.0000000000000000e+00  -1.3331974359431650e-01 -1.1059177578042376e-02 0.0000000000000000e+00  -1.3190744018692183e-01 -2.2961814665032526e-02 0.0000000000000000e+00  -1.2985377716732474e-01 -3.2767700534513632e-02 0.0000000000000000e+00  -1.2666563938999281e-01 -4.3498656812138610e-02 0.0000000000000000e+00  -1.2266076477514821e-01 -5.3784348364097130e-02 0.0000000000000000e+00  -1.1772430845228091e-01 -6.3848203866271103e-02 0.0000000000000000e+00  -1.1260443417236488e-01 -7.2442159055116404e-02 0.0000000000000000e+00  -1.0497787903784483e-01 -8.3104928681236631e-02 0.0000000000000000e+00  -9.9243920862787161e-02 -8.9870069729707139e-02 0.0000000000000000e+00  -8.9986203862190375e-02 -9.9129800470485641e-02 0.0000000000000000e+00  -8.2362200462598720e-02 -1.0561830715804964e-01 0.0000000000000000e+00  -7.3245978242481552e-02 -1.1213805394459567e-01 0.0000000000000000e+00  -6.3754951870399271e-02 -1.1779644246491024e-01 0.0000000000000000e+00  -5.3802813316116575e-02 -1.2266300335267045e-01 0.0000000000000000e+00  -4.3491891520636761e-02 -1.2668660687788350e-01 0.0000000000000000e+00  -3.2877210489630347e-02 -1.2984440959705956e-01 0.0000000000000000e+00  -2.2049302199764764e-02 -1.3211892134962741e-01 0.0000000000000000e+00  -1.1057346176000883e-02 -1.3348510527453308e-01 0.0000000000000000e+00  -1.6879458731498912e-05 -1.3394469090007644e-01 0.0000000000000000e+00  1.1180540933803980e-02 -1.3347384177127025e-01 0.0000000000000000e+00  2.1111347281897459e-02 -1.3223325403131855e-01 0.0000000000000000e+00  3.3938745996465694e-02 -1.2952960006013708e-01 0.0000000000000000e+00  4.2434668358448190e-02 -1.2699841304500673e-01 0.0000000000000000e+00  5.3743905396584621e-02 -1.2252791454077221e-01 0.0000000000000000e+00  6.4573158896149230e-02 -1.1730487622542389e-01 0.0000000000000000e+00  7.3140106846449462e-02 -1.1220205209562019e-01 0.0000000000000000e+00  8.2373286614829885e-02 -1.0561146211359214e-01 0.0000000000000000e+00  8.9996636602945851e-02 -9.9146195756359218e-02 0.0000000000000000e+00  9.9255927105215774e-02 -8.9872036749688772e-02 0.0000000000000000e+00  1.0497817771317285e-01 -8.3099837048152603e-02 0.0000000000000000e+00  1.1268843962161733e-01 -7.2312397714563978e-02 0.0000000000000000e+00  1.1722211389489977e-01 -6.4694674941308095e-02 0.0000000000000000e+00  1.2298289454961464e-01 -5.2944827080892931e-02 0.0000000000000000e+00  1.2666382553079047e-01 -4.3481117972327364e-02 0.0000000000000000e+00  1.2955286419262149e-01 -3.3753580735268615e-02 0.0000000000000000e+00  1.3223253761564616e-01 -2.0951444868584114e-02 0.0000000000000000e+00  1.3333193577720598e-01 -1.2170820387755531e-02 0.0000000000000000e+00  -2.6471526560232807e-03 1.1006070875872991e-01 0.0000000000000000e+00  -1.0025586343610474e-03 -6.4362411653868121e-02 0.0000000000000000e+00  1.7072727181763146e-02 -6.9029398611753251e-02 0.0000000000000000e+00  -2.2134095799109584e-02 -6.6846934075597109e-02 0.0000000000000000e+00  3.5919980213646327e-02 -5.2733385469041952e-02 0.0000000000000000e+00  -3.5912164769785308e-02 -5.1161003257651515e-02 0.0000000000000000e+00  4.8141883884029735e-02 -5.1231917895357963e-02 0.0000000000000000e+00  -6.0705566561440168e-02 -5.0896280873241571e-02 0.0000000000000000e+00  7.7887494813435862e-02 -3.8364089981183895e-02 0.0000000000000000e+00  -8.9814411576618125e-02 -2.5630992397508299e-02 0.0000000000000000e+00  9.7279816751744269e-02 5.7308578757220121e-03 0.0000000000000000e+00  -9.6385106010267466e-02 2.0906278488371552e-02 0.0000000000000000e+00  7.7645260107200978e-02 6.1566518710518048e-02 0.0000000000000000e+00  -6.7804748184598362e-02 7.2016100131646332e-02 0.0000000000000000e+00  2.3273024199361007e-02 9.3374300455759882e-02 0.0000000000000000e+00  -2.5256636605870724e-02 1.0167918729029451e-01 0.0000000000000000e+00  -2.1963785290820582e-02 4.1381828115846626e-02 0.0000000000000000e+00  2.6288247897590621e-02 4.2992900524448222e-02 0.0000000000000000e+00  -3.3507008342566057e-02 9.2724893116958251e-02 0.0000000000000000e+00  -2.7234874404897212e-02 7.3559366428163464e-02 0.0000000000000000e+00  1.8131496384320211e-02 7.8867728628384245e-02 0.0000000000000000e+00  -2.9203626457210061e-02 -9.9103253045210615e-02 0.0000000000000000e+00  1.9664202946856887e-02 -1.0089773832571963e-01 0.0000000000000000e+00  -7.0275623791166295e-02 -7.1363268950417655e-02 0.0000000000000000e+00  6.9447254085246227e-02 -7.9598765154162782e-02 0.0000000000000000e+00  -8.6340423272006611e-02 -4.7311156683886163e-02 0.0000000000000000e+00  8.8078325421191456e-02 -5.2237775489441980e-02 0.0000000000000000e+00  -2.1687703810803260e-02 -2.8716679580338987e-02 0.0000000000000000e+00  2.8548868900788633e-02 -3.8200149022779448e-02 0.0000000000000000e+00  2.8889947337187444e-02 1.0719007792074708e-01 0.0000000000000000e+00  -2.9586800087196840e-02 -5.8343604973555466e-02 0.0000000000000000e+00  3.5147612451789358e-02 -5.5439074244234832e-02 0.0000000000000000e+00  1.0473040773297337e-01 -3.1633007093524124e-02 0.0000000000000000e+00  -1.2892065187377045e-03 -6.1720919929640849e-02 0.0000000000000000e+00  -2.9294253473472809e-02 -6.0046457371731650e-02 0.0000000000000000e+00  1.1551764707955176e-01 4.1165778698282812e-03 0.0000000000000000e+00  -1.0949801064844059e-01 -2.0557793549688005e-02 0.0000000000000000e+00  -1.1540132960503292e-01 2.3480231713601064e-02 0.0000000000000000e+00  -5.2784429779350658e-03 -1.1483056376310061e-01 0.0000000000000000e+00  4.6194349550794746e-02 -1.0543085443221113e-01 0.0000000000000000e+00  -5.6142308354364436e-02 -1.0041268511504461e-01 0.0000000000000000e+00  1.0164823217439564e-01 5.7304448478268037e-02 0.0000000000000000e+00  5.5323519666593365e-02 1.0162252180159172e-01 0.0000000000000000e+00  1.5635835290891929e-02 -6.9380752464840961e-02 0.0000000000000000e+00  -9.3755805261027544e-02 7.0950575870591073e-02 0.0000000000000000e+00  8.9887306877607570e-02 -6.9737071455342414e-02 0.0000000000000000e+00  5.4027260628560253e-02 -6.2082441660512230e-02 0.0000000000000000e+00  -9.2207342979127999e-02 -6.4366283402843436e-02 0.0000000000000000e+00  -3.6154018517334061e-02 -6.3988886769289266e-02 0.0000000000000000e+00  -3.5150538940054363e-02 6.6212230893825705e-02 0.0000000000000000e+00  6.2771342726216248e-02 -4.2503140866218807e-02 0.0000000000000000e+00  -7.1551345669756142e-02 -2.7745289086815530e-02 0.0000000000000000e+00  -7.4019136683836598e-02 2.5204077902127951e-02 0.0000000000000000e+00  7.8599747307367421e-02 1.2689895351349210e-02 0.0000000000000000e+00  1.0461431068641962e-01 -4.3121273540517292e-02 0.0000000000000000e+00  4.6613962799992928e-02 6.0232555730960285e-02 0.0000000000000000e+00  -1.0995251287848225e-01 -3.4625050725702315e-02 0.0000000000000000e+00  -8.5451102951383557e-04 7.1301361225428322e-02 0.0000000000000000e+00  1.1813998563624072e-01 -1.2759890125185532e-02 0.0000000000000000e+00  1.5368017127912045e-03 1.1999118711725962e-01 0.0000000000000000e+00  -1.2221942372367131e-01 1.3214071040903760e-02 0.0000000000000000e+00  -5.2069131509270623e-02 1.0907364170742186e-01 0.0000000000000000e+00  -1.1242058362724994e-01 5.3908638108899787e-02 0.0000000000000000e+00  1.1628842057225756e-01 4.4720021001005063e-02 0.0000000000000000e+00  7.2926799379695552e-03 -1.8905427781074395e-02 0.0000000000000000e+00  -4.0022604903322205e-02 2.3574034309387756e-02 0.0000000000000000e+00  -1.3477596939239039e-02 -6.2298711926603093e-03 0.0000000000000000e+00  -4.0494446412307950e-04 -7.4159467793924544e-02 0.0000000000000000e+00  8.8593805949368415e-02 8.7387453053772782e-02 0.0000000000000000e+00  -5.9653053534173286e-02 -4.7807232004037005e-02 0.0000000000000000e+00  3.9753315264251472e-02 1.3269708764793785e-02 0.0000000000000000e+00  -7.7094461067555270e-02 9.7710683742532389e-02 0.0000000000000000e+00  3.8863931169602316e-02 3.7605723862818775e-02 0.0000000000000000e+00  2.6063343607029985e-02 1.2109206528310090e-01 0.0000000000000000e+00  -8.4920652922334278e-02 -5.3198134614466742e-02 0.0000000000000000e+00  6.6118467316910220e-02 -2.4782209541265417e-02 0.0000000000000000e+00  -5.0352922601147486e-03 7.3097963146166303e-02 0.0000000000000000e+00  -1.6742639983601385e-02 1.0922234628146128e-01 0.0000000000000000e+00  6.3159921563465116e-02 3.2344968882265505e-02 0.0000000000000000e+00  -7.1788531828213611e-02 -6.5408194900930389e-02 0.0000000000000000e+00  3.0454915659929228e-02 -6.0645926132220772e-02 0.0000000000000000e+00  3.5159680723247287e-02 -6.3265015988456630e-02 0.0000000000000000e+00  3.0328776341381664e-02 -5.3879397228322884e-02 0.0000000000000000e+00  -1.0002257118654621e-02 -6.6840779529552641e-02 0.0000000000000000e+00  5.2029933132899449e-02 -8.7238603185351010e-02 0.0000000000000000e+00  2.4635663994459359e-03 -6.3837653254299562e-02 0.0000000000000000e+00  -5.6041458372529163e-02 4.6537786510944770e-02 0.0000000000000000e+00  -5.8747878732669949e-02 -8.1459630970254757e-02 0.0000000000000000e+00  -2.6813875141597603e-02 -5.9339024581755578e-02 0.0000000000000000e+00  3.9597529367645629e-02 -4.9818720490118651e-02 0.0000000000000000e+00  -1.2195702528355964e-02 -7.0048176180777910e-02 0.0000000000000000e+00  1.1993115710838659e-02 -1.2244869718779330e-01 0.0000000000000000e+00  -2.3345969375903899e-02 -1.2096096600887531e-01 0.0000000000000000e+00  -7.4782394068226676e-02 -3.8447805131401518e-03 0.0000000000000000e+00  5.9913206542651372e-02 -4.9520105593041874e-02 0.0000000000000000e+00  -8.4543685929624135e-02 -9.1993238681792697e-02 0.0000000000000000e+00  -5.6159895092139950e-02 -4.9607724669578392e-02 0.0000000000000000e+00  7.1258446257372265e-02 1.0497872134289322e-01 0.0000000000000000e+00  -1.2393340866195762e-01 -1.5806382123735318e-02 0.0000000000000000e+00  7.5037234461643731e-02 -1.0025690976138062e-01 0.0000000000000000e+00  -1.9655803711036840e-02 1.2523332797743988e-01 0.0000000000000000e+00  2.1903904776511957e-02 6.1023512999725880e-02 0.0000000000000000e+00  -1.1279687186494312e-01 -4.9640888071309536e-02 0.0000000000000000e+00  3.7094721065485991e-03 -9.2216892778177517e-02 0.0000000000000000e+00  -4.7421896013670570e-02 8.5556452727597640e-02 0.0000000000000000e+00  2.2248151734507514e-03 -5.1047721130094176e-02 0.0000000000000000e+00  1.0492811763919008e-01 -6.3917907840056756e-02 0.0000000000000000e+00  -7.7849491944818786e-02 -4.0440034252238875e-02 0.0000000000000000e+00  4.8227980186453315e-02 -8.7350779671860515e-02 0.0000000000000000e+00  -3.4322598647041757e-04 9.6197555195617179e-02 0.0000000000000000e+00  3.7264802780667072e-02 -1.2063355996445441e-01 0.0000000000000000e+00  -4.7292460447002471e-02 -1.1625300210956911e-01 0.0000000000000000e+00  9.5480506394847453e-02 -1.1947589942757394e-02 0.0000000000000000e+00  1.5388805457584582e-03 -4.0278386820114857e-02 0.0000000000000000e+00  3.2191326757688189e-02 -1.3509812078528432e-02 0.0000000000000000e+00  1.4863873558951798e-02 -7.6230681145110876e-02 0.0000000000000000e+00  1.1638105939766108e-01 2.0684066563419208e-02 0.0000000000000000e+00  -1.2617441184044609e-02 -9.3359225349509370e-02 0.0000000000000000e+00  -9.5778723135065399e-02 -7.9063755792557353e-02 0.0000000000000000e+00  -4.0593307052332765e-02 4.3719702106406862e-02 0.0000000000000000e+00  -1.0043999167020994e-01 5.6514535133370153e-02 0.0000000000000000e+00  -4.5409525347798560e-02 -5.1308604987354345e-02 0.0000000000000000e+00  9.9366263651184963e-02 5.0782812027303066e-02 0.0000000000000000e+00  -5.9399372324438517e-02 -5.8176652876227426e-02 0.0000000000000000e+00  -3.0100350403602427e-02 6.9605885787791019e-02 0.0000000000000000e+00  -9.5367274765318380e-02 -9.3264570848444455e-03 0.0000000000000000e+00  7.8974170443973285e-02 -4.0176705949815705e-02 0.0000000000000000e+00  -6.0914719462119155e-03 9.7907717019145871e-02 0.0000000000000000e+00  1.7038978272997069e-02 8.9676712254054686e-02 0.0000000000000000e+00  5.3176729957139044e-03 9.3972413826449080e-02 0.0000000000000000e+00  -4.4033209053416711e-03 1.1570946136138505e-01 0.0000000000000000e+00  3.4789813824477177e-02 5.3300853606661890e-02 0.0000000000000000e+00  4.4563426202036918e-02 -7.2829012512559905e-03 0.0000000000000000e+00  -4.5776346229929382e-03 9.6380526429067706e-02 0.0000000000000000e+00  -1.8361434895105350e-02 7.1402402010595813e-03 0.0000000000000000e+00  1.1891955895322985e-01 -3.1971858154855495e-02 0.0000000000000000e+00  9.3022336543051684e-02 -8.6022040382561574e-02 0.0000000000000000e+00  1.2533949283270893e-01 7.0299336914843797e-03 0.0000000000000000e+00  -1.1764542933775653e-01 -3.8950853801266783e-02 0.0000000000000000e+00  -7.3985760665070843e-02 -4.7086672785099502e-02 0.0000000000000000e+00  6.2604599684330936e-02 -6.4529893131639315e-02 0.0000000000000000e+00  -1.2616886324927637e-01 6.0463384189689551e-03 0.0000000000000000e+00  8.9965042193266842e-02 -3.4741003921663814e-02 0.0000000000000000e+00  9.1939584571466851e-02 -6.3022162616813218e-02 0.0000000000000000e+00  -1.5870433493859876e-02 -4.9893470030382248e-02 0.0000000000000000e+00  1.1401932422375390e-01 -4.9992537921275018e-02 0.0