<?xml version="1.0"?>
<VTKFile type="UnstructuredGrid"  version="0.1"  >
<UnstructuredGrid>
<Piece  NumberOfPoints="1235" NumberOfCells="2353">
<Points>
<DataArray  type="Float64"  NumberOfComponents="3"  format="ascii">-1.008609872006169 0.2228554222235942 0  -1.00484987875475 0.1126345748902028 0  -0.9884334707386052 0.003141128337421134 0  -0.9595995543972402 -0.1039631103492472 0  -0.918876683901912 -0.2067470282523051 0  -0.8667690852600544 -0.3049429485886025 0  -0.8039454606921086 -0.3963354183074929 0  -0.7314086744005106 -0.4803885323891933 0  -0.6514865329852216 -0.5546372848791519 0  -0.5669120022885578 -0.6180042524651276 0  -0.4778617636019343 -0.6711879755511425 0  -0.3846007074249992 -0.7146945345984048 0  -0.2883952166232643 -0.7483645404135002 0  -0.1900293008194506 -0.7722328238236685 0  -0.09139443567014036 -0.7859207652138008 0  0.005992767115520223 -0.789887508663732 0  0.1028779950946678 -0.7842797061361569 0  0.2016450096882547 -0.7688675987013144 0  0.2998430470580726 -0.7433590010667523 0  0.3952421967156463 -0.7080537198620819 0  0.4870172924568562 -0.6631920768004773 0  0.5756261356278106 -0.6081933158040089 0  0.6591934342462302 -0.5435507357213827 0  0.7371965806747871 -0.4687253422548428 0  0.8081776162505919 -0.3841528065354629 0  0.8697640230493831 -0.2915170349634353 0  0.9204235533255275 -0.1930187760585826 0  0.9595482376359196 -0.0894933564434283 0  0.9867891848180539 0.01760229808335379 0  1.001829329531146 0.1274741655806456 0  1.004336060199517 0.2377255612102392 0  0.9942755685121952 0.3476055168404504 0  0.9717331397416242 0.4557829747034948 0  0.9373386152026844 0.5601902545098194 0  0.8916350301840905 0.65994620426053 0  0.8348247999836729 0.7543771496030668 0  0.7682462239398905 0.8416450249075056 0  0.6922462703011809 0.9210109878763179 0  0.6077720346452703 0.9916790880208243 0  0.5162727082190145 1.052480483763015 0  0.4184359360888145 1.103170082689198 0  0.3156927706148828 1.142895741690904 0  0.2093009622735553 1.171499926140062 0  0.1005460393531946 1.188411250322335 0  -0.009241388518919884 1.193543432245477 0  -0.1191148465904933 1.186643798637104 0  -0.2277446668606187 1.168019599296003 0  -0.3337221928973671 1.137750541178059 0  -0.4356407281470666 1.096248530086853 0  -0.5325875580982599 1.04406568439417 0  -0.6230728948071063 0.9818095365250851 0  -0.7061866096510918 0.9101175440170941 0  -0.7809711187014123 0.829674914635401 0  -0.8467412070017345 0.7410638867677217 0  -0.9020030930932063 0.6462043172488265 0  -0.9463670879917265 0.5454795960948543 0  -0.9792245356854561 0.440390431884556 0  -0.9999392589329985 0.3323815363036126 0  2.493698230586177 0.0001376571376215458 0  2.485615845178094 0.2006589195209118 0  2.461428266414788 0.3998811434489812 0  2.421220572014747 0.5967772031393543 0  2.365310872548823 0.7898299524707402 0  2.294214960133377 0.9772949982003668 0  2.207996722337453 1.159001479291772 0  2.107664129221999 1.332784376333793 0  1.993572955579708 1.498075797718962 0  1.866567724016216 1.653630048181395 0  1.727438232042571 1.798477794552806 0  1.577234986410039 1.931545634909802 0  1.416449507284118 2.052365951775106 0  1.246992066163961 2.159524810006641 0  1.069024652607718 2.252919511029527 0  0.8841250972622149 2.331707905391895 0  0.6939463523306716 2.395198630472621 0  0.4986716079512526 2.443332559360641 0  0.3005830938025866 2.475522817153486 0  0.1005464092834909 2.491673579814651 0  -0.1005473419734491 2.491672789249808 0  -0.3005663589437818 2.475526312496081 0  -0.4988061026915731 2.443310664279503 0  -0.6938088323467535 2.395244523402766 0  -0.8841487729224037 2.331699795569457 0  -1.069023209194617 2.252921976096844 0  -1.246843752579371 2.159594272925455 0  -1.416577670509604 2.052265238871757 0  -1.577122327639787 1.931624035440913 0  -1.727438050834176 1.798449093254711 0  -1.866652908598128 1.653525483125051 0  -1.993574075901324 1.498072763709599 0  -2.107577363842644 1.332912314327188 0  -2.208046784486582 1.158871003897483 0  -2.294215691958888 0.9772937218618774 0  -2.365311303114705 0.7898288463724222 0  -2.421273634269226 0.5966244210454936 0  -2.461378919043854 0.4001764602866934 0  -2.485624144766784 0.2004989162513668 0  -2.493697421630119 0.0001603598449034756 0  -2.485595434316457 -0.2008201991851077 0  -2.461431370047208 -0.3998588062236583 0  -2.421195822434981 -0.596938949616067 0  -2.36541315097795 -0.789521296101665 0  -2.294087149385033 -0.977594069504206 0  -2.208134764201611 -1.158735529617169 0  -2.107561056883166 -1.332933867134464 0  -1.993667070540871 -1.497938796032242 0  -1.866469634099781 -1.653730698099466 0  -1.727463798413244 -1.798452163269748 0  -1.577116727931131 -1.931648149991527 0  -1.416697104571912 -2.05219549630457 0  -1.246710115999892 -2.159686496582283 0  -1.069176655549499 -2.252864030735347 0  -0.8841518902155787 -2.331698348606182 0  -0.6937914314427552 -2.395248031588353 0  -0.4989389146006921 -2.443276538813064 0  -0.3005819953552583 -2.47550819965045 0  -0.1002756102473872 -2.49168337996794 0  0.1004115908931188 -2.491681515318056 0  0.3004473941407069 -2.475534791521012 0  0.4989375186673669 -2.443277670689504 0  0.6937916459486744 -2.395248196621964 0  0.8841517529662826 -2.331697910621846 0  1.069024392120943 -2.252918980590225 0  1.246992113918688 -2.159523889495571 0  1.416448026433083 -2.052366580829396 0  1.577234154097258 -1.931545626841688 0  1.727437972929178 -1.798477377589577 0  1.866566295829192 -1.65363040948055 0  1.993573026517025 -1.498076066458665 0  2.10766309857035 -1.332784152656652 0  2.207995873136899 -1.159002548676225 0  2.294140445210195 -0.9774440753452035 0  2.365353686191239 -0.7896707346567925 0  2.421225171882322 -0.5967790850512094 0  2.461389963375318 -0.4000148561538097 0  2.485596835125812 -0.2006551264577936 0  -0.002462150771068166 0.2069625671681666 0  0.1120133999572425 -1.63873459173132 0  -0.7673658586941861 -1.469675637843219 0  0.9008784527522622 -1.395063432584718 0  -1.387720098612907 -0.9630121974602197 0  1.52866362955803 -0.7408086821926203 0  -1.719957622930487 -0.2156954898089135 0  1.740695920817695 -0.02845929025876414 0  -1.690731377070225 0.5402246258829743 0  1.619134621445812 0.7597762561056598 0  -1.356541656512147 1.198487243699165 0  1.211847440157793 1.358200986999416 0  -0.7935110841470535 1.652263042305411 0  0.603026819012678 1.736433092788413 0  -0.1048926754029393 1.839327322492923 0  0.61884871299519 -1.856852873848413 0  0.5023507479897552 0.2529814374732687 0  -0.508769077331079 0.1908724607384631 0  -0.3932562015068163 -1.888198689528981 0  0.2785268587326065 -0.2010859149861561 0  -0.2410826310547092 -0.226065456322296 0  -0.2637031944479462 0.6288958519991742 0  1.4483909362626 -1.287040702127049 0  -1.310038928682985 -1.479863707111382 0  -1.846083382145203 -0.7149196288642028 0  -0.2719506710520271 -1.291926764312976 0  0.4136145482700948 -1.240165011371821 0  1.96371649455072 0.4130340286272978 0  1.035651342219607 -0.9040001790961552 0  1.944591445075103 -0.4725063695528617 0  -0.7805870711151787 -1.020796659781121 0  -2.032516494963434 0.2418279440575676 0  0.2272007350492646 0.6592827762336134 0  -1.774726386438972 1.01815534492374 0  0.2395885735263258 -2.052388438678899 0  -1.315708412384589 -0.4905531770558204 0  1.035515344078972 -1.796511548994908 0  -0.8240160564170972 -1.899189694856964 0  -1.24179045846376 1.635748284410425 0  1.7956159686027 -1.061087178724664 0  1.368577982429902 -0.3124282019153199 0  1.640013617012692 1.215377535049528 0  -0.5161322263188171 1.99545083444739 0  -1.770364998007435 -1.110006363502687 0  1.540534522176093 0.3407270072718646 0  -1.446714049722502 0.164539638433844 0  1.043031874494816 1.769048895014139 0  0.2851590321393109 2.039698927632148 0  -1.307901995815548 0.7717392728173289 0  1.226979920961089 0.9269988306048959 0  2.111660591792098 -0.1300989055956157 0  -2.070360861087197 -0.3951353208743298 0  -1.055913157498495 -0.7651196655388548 0  -0.9310731311937582 1.258122654144014 0  0.7953377857539871 1.363614251221114 0  0.2197436414262467 1.582863099508206 0  -0.3912910898493705 1.543068015514128 0  -2.051584645889781 0.6052461533651934 0  0.6730700565758327 -0.9903614479821161 0  1.986122372021986 0.7793673567781436 0  0.06151147466234998 -1.155729266201088 0  -1.673037799012331 1.356883689655296 0  -1.038664607266613 -1.258195525193112 0  1.115597647287788 -0.5646006137863498 0  -1.02686573143877 1.901914259297315 0  1.366797601772268 1.664998833591784 0  1.344316580393092 0.03815510882314006 0  -1.381364573221886 -0.1644916007802309 0  -0.1739712108743554 -2.155299170414446 0  1.295616772706385 0.5846537311338482 0  -0.1754115452535654 2.167334359719131 0  0.6175664718661881 2.071736538204887 0  1.363002902677163 -1.63950684645538 0  0.5985222257023155 -0.08148431250685588 0  0.02726545218251465 -0.4349944696492856 0  0.5959843750896219 -1.523054301280145 0  -1.165470932642676 -1.803212439237331 0  -0.5679914281370601 -0.156790968544482 0  -0.5891345166606158 0.5200017982101196 0  -2.01730484802247 -0.07923635780009379 0  -0.032373189707668 0.8663633777260384 0  -1.38270669362601 0.4685269121793611 0  0.5494714980200068 0.60657409705288 0  2.008422584268825 -0.8012506224882304 0  -1.111538689688514 1.007933318602627 0  0.4837253372788227 1.409755982762085 0  0.9591390947402495 1.092309541358353 0  -0.08155172309598763 1.496228787668857 0  -0.6298481090622099 1.339797645670962 0  -0.4574641470176148 -1.566203769011273 0  0.5267178806796797 -2.144410664381678 0  -1.499316107008089 -1.24523057599882 0  -0.6046964081621139 -2.107177831681638 0  1.636828064781856 -0.4606136319564447 0  -0.4545745627135487 -1.035887150804852 0  -0.01536482703155295 -1.906151688897056 0  1.738978451762084 -1.350240094368122 0  -1.734621749936939 0.2495212040889201 0  -1.599294432893044 -1.535909288876715 0  -0.1798779256014114 -1.658767666413548 0  1.913455350890414 1.078440435463515 0  -1.626146830012954 -0.5025846833781141 0  2.172008629485663 0.1789134196007587 0  
[...]
<PointData  Vectors="f_3775-0"> 
<DataArray  type="Float64"  Name="f_3775-0"  NumberOfComponents="3" format="ascii">6.0414600861094930e-03 -8.1599986650344000e-02 0.0000000000000000e+00  2.2330993127381914e-02 -9.1750070805494174e-02 0.0000000000000000e+00  4.1403775373617786e-02 -1.0144763671133630e-01 0.0000000000000000e+00  6.3289538868861378e-02 -1.0976676390353547e-01 0.0000000000000000e+00  8.6344414467907513e-02 -1.1314993297215549e-01 0.0000000000000000e+00  1.1225161584295854e-01 -1.1581531167134682e-01 0.0000000000000000e+00  1.3810831506478796e-01 -1.1257071993878050e-01 0.0000000000000000e+00  1.6364843874168811e-01 -1.0606097033707727e-01 0.0000000000000000e+00  1.7987090406402081e-01 -8.9351236414901059e-02 0.0000000000000000e+00  1.7967628167619587e-01 -6.2047541206662421e-02 0.0000000000000000e+00  1.6905200609080773e-01 -3.3381631731602711e-02 0.0000000000000000e+00  1.5146106502805962e-01 -7.5015987704835285e-03 0.0000000000000000e+00  1.2662506390275477e-01 1.5060540517120517e-02 0.0000000000000000e+00  9.5452315675790794e-02 3.3231036722349498e-02 0.0000000000000000e+00  5.3976807805398694e-02 4.5646624096378229e-02 0.0000000000000000e+00  1.4725823307232050e-03 5.0076325176723092e-02 0.0000000000000000e+00  -5.2443483258708720e-02 4.4826209315532835e-02 0.0000000000000000e+00  -9.2234045232200246e-02 3.2109189206933876e-02 0.0000000000000000e+00  -1.2202631254656766e-01 1.4216228553004986e-02 0.0000000000000000e+00  -1.4713961415020974e-01 -8.6203776024682890e-03 0.0000000000000000e+00  -1.6691276788609774e-01 -3.5737137068152840e-02 0.0000000000000000e+00  -1.7576806041072091e-01 -6.2652332700349436e-02 0.0000000000000000e+00  -1.7577004150492326e-01 -8.8968319253043479e-02 0.0000000000000000e+00  -1.6331275950260601e-01 -1.0882693193947578e-01 0.0000000000000000e+00  -1.3937651570540555e-01 -1.1814636080587367e-01 0.0000000000000000e+00  -1.1217923423607348e-01 -1.1925979239472249e-01 0.0000000000000000e+00  -8.6987097026236693e-02 -1.1757545344826779e-01 0.0000000000000000e+00  -6.3101554400063153e-02 -1.1288674982274385e-01 0.0000000000000000e+00  -4.1750432607045911e-02 -1.0656421496994536e-01 0.0000000000000000e+00  -2.2442950360218036e-02 -9.5346554156279933e-02 0.0000000000000000e+00  -6.0275930853129931e-03 -8.5397399667005436e-02 0.0000000000000000e+00  7.8834518845882200e-03 -7.3527761923724108e-02 0.0000000000000000e+00  1.9036140209466073e-02 -5.9451086885295261e-02 0.0000000000000000e+00  2.8131920539738130e-02 -4.7189540506435666e-02 0.0000000000000000e+00  3.5619898919357490e-02 -3.5723914540417866e-02 0.0000000000000000e+00  3.9320581700418800e-02 -2.1551410062133999e-02 0.0000000000000000e+00  4.2343648065980850e-02 -9.8875667694358731e-03 0.0000000000000000e+00  4.2627622035721159e-02 1.9001342205415481e-03 0.0000000000000000e+00  4.0139733434631487e-02 1.3413593431405919e-02 0.0000000000000000e+00  3.6872706241909310e-02 2.2628950202917511e-02 0.0000000000000000e+00  3.0902126698187021e-02 3.1080504573738697e-02 0.0000000000000000e+00  2.3990261699036206e-02 3.7557445466674576e-02 0.0000000000000000e+00  1.5937287342610677e-02 4.2577156036063393e-02 0.0000000000000000e+00  7.5079215456779072e-03 4.5389235692408325e-02 0.0000000000000000e+00  -4.5770093139995061e-04 4.6612108463756644e-02 0.0000000000000000e+00  -9.1992080977255867e-03 4.5713333308272271e-02 0.0000000000000000e+00  -1.8042883280889151e-02 4.2773963366733850e-02 0.0000000000000000e+00  -2.6025718021893969e-02 3.7724126964469959e-02 0.0000000000000000e+00  -3.2649864582409358e-02 3.0914626500156250e-02 0.0000000000000000e+00  -3.8609358987119896e-02 2.2243228671723889e-02 0.0000000000000000e+00  -4.1885345319788471e-02 1.2947455997823787e-02 0.0000000000000000e+00  -4.3237649855228266e-02 2.6252907221638844e-03 0.0000000000000000e+00  -4.2722299790478056e-02 -8.4771015476020548e-03 0.0000000000000000e+00  -4.1533362973873236e-02 -2.2522041710920693e-02 0.0000000000000000e+00  -3.6201855282082161e-02 -3.4132540214000126e-02 0.0000000000000000e+00  -2.9232909182042473e-02 -4.7251292429115584e-02 0.0000000000000000e+00  -1.9982236606730569e-02 -6.0112536532514457e-02 0.0000000000000000e+00  -7.9172597359879887e-03 -7.1729829979601548e-02 0.0000000000000000e+00  1.3458145686517139e-01 9.3487843013501082e-04 0.0000000000000000e+00  1.3417011384104588e-01 1.0826218781052600e-02 0.0000000000000000e+00  1.3299307680567826e-01 2.0664166737433171e-02 0.0000000000000000e+00  1.3057033559107073e-01 3.2181884361784673e-02 0.0000000000000000e+00  1.2729749551586095e-01 4.3671370582913156e-02 0.0000000000000000e+00  1.2424414483620495e-01 5.1725745047457715e-02 0.0000000000000000e+00  1.1873585487489230e-01 6.3370811918012040e-02 0.0000000000000000e+00  1.1384730105274403e-01 7.1846992142037255e-02 0.0000000000000000e+00  1.0761609742097764e-01 8.0887050504582406e-02 0.0000000000000000e+00  1.0078679204433032e-01 8.9258596935934895e-02 0.0000000000000000e+00  9.3177822322502213e-02 9.7170574849818558e-02 0.0000000000000000e+00  8.5840876192190371e-02 1.0366806721440192e-01 0.0000000000000000e+00  7.5552868617173530e-02 1.1138439536558413e-01 0.0000000000000000e+00  6.8259080869587999e-02 1.1599989178335279e-01 0.0000000000000000e+00  5.7658983135914652e-02 1.2150113702084180e-01 0.0000000000000000e+00  4.6690114912082303e-02 1.2623836619172868e-01 0.0000000000000000e+00  3.8498735839177504e-02 1.2897118508447372e-01 0.0000000000000000e+00  2.6023201746763820e-02 1.3206658905244945e-01 0.0000000000000000e+00  1.6228368403633880e-02 1.3364180871096826e-01 0.0000000000000000e+00  6.3369923240381518e-03 1.3445604875940231e-01 0.0000000000000000e+00  -6.3424907990647702e-03 1.3445083658629256e-01 0.0000000000000000e+00  -1.6115526715440025e-02 1.3366544404316164e-01 0.0000000000000000e+00  -2.6935604419822057e-02 1.3191698179314265e-01 0.0000000000000000e+00  -3.7566770737583827e-02 1.2928110777618607e-01 0.0000000000000000e+00  -4.6849397835388815e-02 1.2618406748283548e-01 0.0000000000000000e+00  -5.7649324461033546e-02 1.2151734779091779e-01 0.0000000000000000e+00  -6.7255067265640747e-02 1.1647426546023712e-01 0.0000000000000000e+00  -7.6424284164203479e-02 1.1070339143822720e-01 0.0000000000000000e+00  -8.5077515348700297e-02 1.0420262140386578e-01 0.0000000000000000e+00  -9.3179636247058439e-02 9.6979938429365781e-02 0.0000000000000000e+00  -1.0136613128720758e-01 8.8549464643780912e-02 0.0000000000000000e+00  -1.0762299342838309e-01 8.0866806593273541e-02 0.0000000000000000e+00  -1.1326028769844219e-01 7.2714850574781068e-02 0.0000000000000000e+00  -1.1907797817863508e-01 6.2489101309202350e-02 0.0000000000000000e+00  -1.2424935596349274e-01 5.1716512196302244e-02 0.0000000000000000e+00  -1.2730037263731891e-01 4.3663386959986880e-02 0.0000000000000000e+00  -1.3092597769749956e-01 3.1146269092138561e-02 0.0000000000000000e+00  -1.3265821483241308e-01 2.2666370524996444e-02 0.0000000000000000e+00  -1.3422732784944302e-01 9.7425003256968734e-03 0.0000000000000000e+00  -1.3457569663183408e-01 1.0867075959382004e-03 0.0000000000000000e+00  -1.3403357385855683e-01 -1.1918404960013222e-02 0.0000000000000000e+00  -1.3301352462790816e-01 -2.0514461534689901e-02 0.0000000000000000e+00  -1.3039937342821098e-01 -3.3276052001942516e-02 0.0000000000000000e+00  -1.2799074566084909e-01 -4.1580403297830901e-02 0.0000000000000000e+00  -1.2337879562064469e-01 -5.3751442710226201e-02 0.0000000000000000e+00  -1.1967150445923280e-01 -6.1568680287882989e-02 0.0000000000000000e+00  -1.1315110574564306e-01 -7.2859519893229058e-02 0.0000000000000000e+00  -1.0825396386000055e-01 -7.9960795681167651e-02 0.0000000000000000e+00  -1.0012350342799475e-01 -8.9941432081820955e-02 0.0000000000000000e+00  -9.3349767938279371e-02 -9.6998715320154069e-02 0.0000000000000000e+00  -8.5039611442418422e-02 -1.0436145313480324e-01 0.0000000000000000e+00  -7.7230249960532862e-02 -1.1023005672769501e-01 0.0000000000000000e+00  -6.6348958214950599e-02 -1.1709545247802539e-01 0.0000000000000000e+00  -5.8687489566400713e-02 -1.2112154613012620e-01 0.0000000000000000e+00  -4.6870097690692697e-02 -1.2617430284053943e-01 0.0000000000000000e+00  -3.7449268631991807e-02 -1.2930456523566294e-01 0.0000000000000000e+00  -2.7835907869336665e-02 -1.3168672440700069e-01 0.0000000000000000e+00  -1.6222605646890799e-02 -1.3354612262189416e-01 0.0000000000000000e+00  -4.4993266991121862e-03 -1.3452254002387920e-01 0.0000000000000000e+00  5.4221374859167110e-03 -1.3450850411095008e-01 0.0000000000000000e+00  1.5308138134835282e-02 -1.3372422705632908e-01 0.0000000000000000e+00  2.7826821779959401e-02 -1.3169417965876420e-01 0.0000000000000000e+00  3.7451062845812746e-02 -1.2930552073754051e-01 0.0000000000000000e+00  4.6868755788842031e-02 -1.2617159678433224e-01 0.0000000000000000e+00  5.7657114225146841e-02 -1.2149755434472598e-01 0.0000000000000000e+00  6.8259038517395246e-02 -1.1599400898331497e-01 0.0000000000000000e+00  7.5542887259217872e-02 -1.1138873427612815e-01 0.0000000000000000e+00  8.5835336240795895e-02 -1.0366826472667945e-01 0.0000000000000000e+00  9.3176192514285647e-02 -9.7167990811662691e-02 0.0000000000000000e+00  1.0077729608717889e-01 -8.9261390652074044e-02 0.0000000000000000e+00  1.0761678144403498e-01 -8.0888964505660910e-02 0.0000000000000000e+00  1.1384070572701811e-01 -7.1845655188190860e-02 0.0000000000000000e+00  1.1873069945709600e-01 -6.3377521716260724e-02 0.0000000000000000e+00  1.2374141649744683e-01 -5.2738195859636149e-02 0.0000000000000000e+00  1.2759073183058947e-01 -4.2592184632338229e-02 0.0000000000000000e+00  1.3060023533604947e-01 -3.2196423012623016e-02 0.0000000000000000e+00  1.3273701551777697e-01 -2.1571873614722147e-02 0.0000000000000000e+00  1.3404611783450007e-01 -1.0801540823714798e-02 0.0000000000000000e+00  -2.2294559872749341e-03 7.8889016235807533e-02 0.0000000000000000e+00  -2.4251802789390891e-03 -4.7972615814676198e-02 0.0000000000000000e+00  -5.3186849902998896e-03 -6.4383609201791425e-02 0.0000000000000000e+00  1.0785247281913542e-02 -6.6720642793242288e-02 0.0000000000000000e+00  -2.8877261783734856e-02 -5.5011229334821408e-02 0.0000000000000000e+00  3.4030153209486491e-02 -5.1126600186694605e-02 0.0000000000000000e+00  -4.9923203192386120e-02 -5.1193937038847386e-02 0.0000000000000000e+00  5.6495703069644035e-02 -4.7011350552154801e-02 0.0000000000000000e+00  -8.0516006735173049e-02 -2.8771149086701423e-02 0.0000000000000000e+00  8.6291030977915503e-02 -1.5299275682173064e-02 0.0000000000000000e+00  -9.0711934284884499e-02 1.9097478743892213e-02 0.0000000000000000e+00  8.6686981250305578e-02 3.3361902561534075e-02 0.0000000000000000e+00  -6.3635525419866681e-02 6.8435843366743992e-02 0.0000000000000000e+00  5.1401272792591539e-02 7.8295683008406364e-02 0.0000000000000000e+00  -8.2943333275843582e-03 9.1994642220234804e-02 0.0000000000000000e+00  2.3770608743941907e-02 -9.5334771950527933e-02 0.0000000000000000e+00  1.5048149854687418e-02 2.4201308345870871e-02 0.0000000000000000e+00  -1.2257673460947123e-02 2.1606413217997198e-02 0.0000000000000000e+00  -1.3950229760231261e-02 -9.2138228873853659e-02 0.0000000000000000e+00  -5.1326384336681491e-02 7.5215981833682680e-02 0.0000000000000000e+00  4.8366359454705993e-02 8.0001107669356461e-02 0.0000000000000000e+00  -1.9564608234403726e-02 5.7558747245416021e-02 0.0000000000000000e+00  6.5989647267596332e-02 -6.9456789784385534e-02 0.0000000000000000e+00  -6.2084732073417359e-02 -7.9480291117984339e-02 0.0000000000000000e+00  -8.2931125242741766e-02 -5.0819481024682395e-02 0.0000000000000000e+00  3.5836353656085104e-02 -1.2858063954995700e-02 0.0000000000000000e+00  -4.7368669401392040e-02 -2.7340112678272820e-02 0.0000000000000000e+00  1.0538358705156803e-01 -1.4179494768169321e-02 0.0000000000000000e+00  -3.2005046969029560e-02 -5.8142947646166961e-02 0.0000000000000000e+00  9.0579968574428557e-02 -4.2595615396523602e-02 0.0000000000000000e+00  5.5916195356869286e-02 -5.9305134429375558e-02 0.0000000000000000e+00  -1.0816060418296709e-01 -1.9396658170873486e-02 0.0000000000000000e+00  1.5302495048209795e-02 5.9045651051396135e-02 0.0000000000000000e+00  -1.1148009714377721e-01 2.1391479149799900e-02 0.0000000000000000e+00  1.0125064304253513e-02 -1.0919455250904153e-01 0.0000000000000000e+00  2.9347941425618907e-02 -6.2873100100242954e-02 0.0000000000000000e+00  5.2520475493304741e-02 -9.9591441585657248e-02 0.0000000000000000e+00  -4.1042062513482795e-02 -1.0381174174650927e-01 0.0000000000000000e+00  -9.0431662914187735e-02 7.0874686551809354e-02 0.0000000000000000e+00  9.2926049623408558e-02 -6.0720965563957154e-02 0.0000000000000000e+00  -2.2456914272770072e-02 -6.7507166598794618e-02 0.0000000000000000e+00  1.0759631143846358e-01 3.4764835178694956e-02 0.0000000000000000e+00  -4.0349366485191447e-02 1.0697958040470866e-01 0.0000000000000000e+00  -9.1235789517866830e-02 -6.3749636026842499e-02 0.0000000000000000e+00  4.6886935142096547e-02 -5.1869581489239119e-02 0.0000000000000000e+00  -2.0055052939202591e-02 -6.6982771991675433e-02 0.0000000000000000e+00  7.9515372624594807e-02 8.2718781197989144e-02 0.0000000000000000e+00  2.3680786601949291e-02 1.1167180160321040e-01 0.0000000000000000e+00  -6.1295724545036387e-02 -3.2372302224759668e-02 0.0000000000000000e+00  6.5873371965098085e-02 -1.9197656157700412e-02 0.0000000000000000e+00  1.1110313339298282e-01 -2.7710513001490848e-02 0.0000000000000000e+00  -1.0638545672814897e-01 -3.8893094808640782e-02 0.0000000000000000e+00  5.5405013585557758e-02 -5.9296307790672270e-02 0.0000000000000000e+00  -6.6050052528252287e-02 1.9668265935082214e-02 0.0000000000000000e+00  6.1856609482231831e-02 3.2511025810372872e-02 0.0000000000000000e+00  2.0076432445934277e-02 6.5966509617431834e-02 0.0000000000000000e+00  -3.2154051727395085e-02 6.0032278073058047e-02 0.0000000000000000e+00  -1.1979674266969960e-01 5.0630051146822877e-03 0.0000000000000000e+00  -7.4919573693700045e-02 -6.2972144813360845e-02 0.0000000000000000e+00  1.1877482361423142e-01 1.4861118336565868e-02 0.0000000000000000e+00  -1.4395656549636489e-02 1.9573694205491723e-02 0.0000000000000000e+00  -1.1071472060266652e-01 5.3207680668706056e-02 0.0000000000000000e+00  -1.1779935993445050e-02 -6.2186569398693596e-02 0.0000000000000000e+00  -6.9648931062652367e-02 -6.9863329261012144e-02 0.0000000000000000e+00  -7.4525119494842362e-02 9.8030847938606058e-02 0.0000000000000000e+00  9.6052293280948262e-02 7.6551162164554418e-02 0.0000000000000000e+00  -8.9710310205539344e-03 -7.7437195035761977e-02 0.0000000000000000e+00  1.5022498194092118e-02 -7.2917204824249460e-02 0.0000000000000000e+00  -9.2254976819894103e-03 -1.1919952035859871e-01 0.0000000000000000e+00  4.2051903270816308e-02 -5.1523765578445797e-02 0.0000000000000000e+00  -1.2783000137686840e-02 1.2268283422705188e-01 0.0000000000000000e+00  4.7195221347283205e-02 1.1351816327598400e-01 0.0000000000000000e+00  7.4512824974233879e-02 -9.1634289214618719e-02 0.0000000000000000e+00  -3.0158126789721042e-02 -1.8622628788937085e-02 0.0000000000000000e+00  -1.6393341398735706e-02 9.5289697492399350e-02 0.0000000000000000e+00  -2.9488259269859446e-03 -5.9642393836442244e-02 0.0000000000000000e+00  -6.3656849001919147e-02 -1.0091415030821019e-01 0.0000000000000000e+00  4.2330220350004208e-02 -1.4777858164339835e-02 0.0000000000000000e+00  -3.1157529575746325e-02 1.3115684723522817e-02 0.0000000000000000e+00  -9.9673263082727670e-02 -3.2992664638328895e-02 0.0000000000000000e+00  -3.2898711225855339e-03 5.9252119085714219e-02 0.0000000000000000e+00  -4.0010500681142834e-02 -5.6035966900513198e-02 0.0000000000000000e+00  3.1235031490799488e-02 1.9453783034759937e-02 0.0000000000000000e+00  1.0707237614953172e-01 -5.0201813712058445e-02 0.0000000000000000e+00  -6.5801610546779826e-02 -9.5533530798310104e-03 0.0000000000000000e+00  4.0075281576578005e-02 4.4383635593659494e-02 0.0000000000000000e+00  5.9966394276248572e-02 -1.9440452638543966e-03 0.0000000000000000e+00  -5.8532333175003830e-03 5.8055529748198255e-02 0.0000000000000000e+00  -4.9498473571100217e-02 3.4774025155001498e-02 0.0000000000000000e+00  4.6244736064389126e-03 -5.4681312530654613e-02 0.0000000000000000e+00  2.7406277849038395e-02 -1.2069977285690812e-01 0.0000000000000000e+00  -6.7849316314770675e-02 -6.7644537648959155e-02 0.0000000000000000e+00  -3.2388724845969094e-02 -1.1830060293582878e-01 0.0000000000000000e+00  3.7327669133950525e-02 -5.0625214177047399e-02 0.0000000000000000e+00  8.6027610823003489e-02 -3.9874743896144614e-02 0.0000000000000000e+00  -1.0603613222843671e-03 -8.8723498373084228e-02 0.0000000000000000e+00  9.7276823930616138e-02 -7.5366500095247341e-02 0.0000000000000000e+00  -6.8679055376893478e-02 -4.1593747874338241e-02 0.0000000000000000e+00  -9.0075170487068021e-02 -8.5886428729876799e-02 0.0000000000000000e+00  1.5889908849768481e-03 -5.3090011520574777e-02 0.0000000000000000e+00  1.1922440633361647e-01 3.7608333215058756e-02 0.0000000000000000e+00  -3.6290605021861905e-02 -5.2671881970195032e-02 0.0000000000000000e+00  1.2093716847475222e-01 -1.1389916861174394e-02 0.0000000000000000e+00  4.7094526672527837e-02 -1.1567884766302808e-01 0.0000000000000000e+00  2.7208609815887172e-02 -5.5487735027616357e-02 0.0000000000000000e+00  1.6993971587640818e-02 -6.2127797335877172e-02 0.0000000000000000e+00  2.7154023305506272e-03 -6.7616811909892438e-02 0.0000000000000000e+00  1.0176489537676674e-02 -7.5013243255236797e-02 0.0000000000000000e+00  -1.0988615700511356e-01 -5.7180043710879910e-02 0.0000000000000000e+00  -6.4451998982688495e-03 8.7166220922138618e-02 0.0000000000000000e+00  -3.7917892029696455e-02 -7.8129737282344638e-02 0.0000000000000000e+00  5.5027064613573790e-02 1.1174748451387238e-02 0.0000000000000000e+00  3.7468756709981524e-02 -4.8908422856335676e-02 0.0000000000000000e+00  1.0693017180761467e-01 6.7300183401833177e-02 0.0000000000000000e+00  -1.2356860299048603e-01 3.3939670754520847e-02 0.0000000000000000e+00  -1.2543089727289325e-01 -1.3054426902772415e-02 0.0000000000000000e+00  -1.1500423331650649e-01 -4.5216637670768715e-02 0.0000000000000000e+00  3.6729340852921601e-03 -9.3619187609786606e-03 0.0000000000000000e+00  -4.2477415796974768e-02 -5.2643269566650434e-02 0.0000000000000000e+00  -8.7123033124572480e-02 -1.3971401537537809e-02 0.0000000000000000e+00  4.2462978828887010e-03 -4.2289702962705275e-02 0.0000000000000000e+00  -1.3527380454036984e-02 -3.3175315160449019e-02 0.0000000000000000e+00  6.3893438537879030e-02 9.5778342862713778e-02 0.0000000000000000e+00  1.2121391226005926e-01 -3.4199926955810887e-02 0.0000000000000000e+00  9.3775374948583928e-02 7.9757784545764571e-02 0.0000000000000000e+00  -5.9082598597550412e-02 9.8498525829324529e-02 0.0000000000000000e+00  4.6852545138615642e-02 -8.1960144057940540e-02 0.0000000000000000e+00  -1.1593242807630996e-01 5.8417700515261767e-02 0.0000000000000000e+00  -9.9048964876610662e-02 8.2589580682566235e-02 0.0000000000000000e+00  -1.0759079525876455e-01 -7.5950255603836697e-02 0.0000000000000000e+00  1.1206577232767419e-02 6.6053401833338521e-02 0.0000000000000000e+00  -5.7052561108257918e-03 6.5427905707860654e-02 0.0000000000000000e+00  -2.0840144602184770e-03 7.3608764336931864e-02 0.0000000000000000e+00  2.6506392311985819e-02 -8.3935478756729950e-02 0.0000000000000000e+00  9.6183705457541596e-02 -8.1324187116557853e-02 0.0000000000000000e+00  -3.3451162601979854e-02 3.0980867550934210e-02 0.0000000000000000e+00  -8.5261702131749620e-02 -1.7284290267536442e-02 0.0000000000000000e+00  -8.0367981106567538e-02 -9.6884584060904957e-02 0.0000000000000000e+00  -1.4505001142779835e-02 6.4227724262728048e-02 0.0000000000000000e+00  4.5202211258976027e-03 6.4272240613477666e-02 0.0000000000000000e+00  -2.7835692947266406e-02 -5.2242636609517605e-02 0.0000000000000000e+00  -1.7132054540479842e-02 -2.9813773984133977e-02 0.0000000000000000e+00  -1.0837705964689026e-01 2.1499024647905845e-03 0.0000000000000000e+00  7.2274783073681445e-02 -4.8696823214357310e-0