<?xml version="1.0"?>
<VTKFile type="UnstructuredGrid"  version="0.1"  >
<UnstructuredGrid>
<Piece  NumberOfPoints="821" NumberOfCells="1550">
<Points>
<DataArray  type="Float64"  NumberOfComponents="3"  format="ascii">-0.9502460106785131 -0.004916410003525861 0  -0.9494085092968378 -0.1106267898519385 0  -0.9364581564153212 -0.2160608336762343 0  -0.9113528108553428 -0.3191884211122341 0  -0.8749841232714797 -0.4177126641803161 0  -0.8281388278991969 -0.5105488858629617 0  -0.7729494635623951 -0.5953489331940249 0  -0.7118219387931487 -0.6707004799265962 0  -0.6443334455665162 -0.7381389014072723 0  -0.5711912342644289 -0.7977913115182436 0  -0.4933674797927773 -0.8493902343191521 0  -0.4109257135408213 -0.8933378333224787 0  -0.3243956135830244 -0.9290631021725524 0  -0.2364055520414003 -0.9557687810935491 0  -0.1450550969130487 -0.9742861939269205 0  -0.05225312808181962 -0.983923518375434 0  0.04095940076539852 -0.9845798713094267 0  0.1336311649513407 -0.9761138125437588 0  0.2256214601117053 -0.9587088079678686 0  0.3150450550965497 -0.9325944850328944 0  0.4011788033378191 -0.898128760623948 0  0.4843090188473028 -0.8551028061946453 0  0.5626293318101639 -0.8043793502065946 0  0.6357604895004623 -0.7461589333621683 0  0.7040123653237924 -0.6797193222879362 0  0.7661754641900632 -0.6050349486762217 0  0.8224581511651308 -0.5209227584136379 0  0.8699215353295079 -0.4298799188768154 0  0.9078726155056613 -0.3313294412143903 0  0.9343195851753884 -0.2285636342284589 0  0.9487162241321926 -0.1237970398853664 0  0.9509149980217061 -0.01743881900523902 0  0.9408960429864702 0.08852564832217044 0  0.9187128215339084 0.1927567034440309 0  0.8849974735661928 0.2931605193924745 0  0.8398483560498856 0.3896205703818459 0  0.7834856664817803 0.4809785477939621 0  0.7175222094329032 0.5647461438176706 0  0.6422917783680638 0.6407640007587154 0  0.559139197227447 0.7078292111962119 0  0.468617691687109 0.765395155418895 0  0.3728532889387961 0.8120077402760083 0  0.2717406128348981 0.8482335377523006 0  0.1668225031522935 0.8729701707655861 0  0.06035292110407625 0.8856825315409864 0  -0.04679479319270637 0.886313280873088 0  -0.1544954979778013 0.8749911974804354 0  -0.2589506603031443 0.8519184443348697 0  -0.3601629805793586 0.8173729916137601 0  -0.4572283620488225 0.7716182072394234 0  -0.5486942212558605 0.7150764980962714 0  -0.6323123048557072 0.6495078956255318 0  -0.7083800505507061 0.5748679996974537 0  -0.7759829132727838 0.4914328276170712 0  -0.8334836702916216 0.401107964865513 0  -0.8798017685624135 0.3059312484448404 0  -0.9154872677831073 0.2044146844530137 0  -0.9389376850540455 0.1007368405840159 0  -1.942302543172264 0.09697308769013605 0  -1.942303173952245 -0.09697825175968781 0  -1.92302978240588 -0.2895659270563228 0  -1.884539107814799 -0.4798593578644825 0  -1.827393089647602 -0.6651241553875445 0  -1.75200168997423 -0.8440294807753467 0  -1.659410819996501 -1.014044702083776 0  -1.550358102792389 -1.174007755962825 0  -1.425390416717426 -1.322940025111566 0  -1.286792501273917 -1.458116829503172 0  -1.135439146196157 -1.578824916651967 0  -0.9723382137719869 -1.68414079884965 0  -0.7995811946417168 -1.772732421826416 0  -0.6194011760905801 -1.843446448318363 0  -0.4327384919823882 -1.89596926516239 0  -0.2418135266423905 -1.929634263734105 0  -0.04848825163394929 -1.944122639832377 0  0.1453657621684508 -1.93928251336615 0  0.3374190854034763 -1.915217076650508 0  0.5267031280158815 -1.87200237914922 0  0.7107446643740346 -1.810179746404208 0  0.8871730137307485 -1.730570779571487 0  1.055103178632333 -1.633621710194997 0  1.212542165390033 -1.520426307185521 0  1.357668917239558 -1.392350165392787 0  1.489705289443523 -1.250020803005652 0  1.606772232382803 -1.095482556031722 0  1.707853617277866 -0.9300486131922523 0  1.791970446772568 -0.7553786338709694 0  1.858278910718862 -0.5731988891392448 0  1.90620720115309 -0.3850685874886455 0  1.935054512008114 -0.1936335629440442 0  1.944711530059257 -0.0002791547704270927 0  1.935021041207546 0.1936249868973791 0  1.906100458310991 0.3856048284471869 0  1.858323458880504 0.573213782961403 0  1.792114174368586 0.7551422779071428 0  1.707759872182576 0.9303059058236945 0  1.606807178101918 1.09549941228189 0  1.489915059825127 1.249828555608625 0  1.357637089322154 1.392383528401619 0  1.21276171349618 1.520230148973474 0  1.054864903772671 1.633761627821089 0  0.8872384687218313 1.730542181995318 0  0.7104859147375082 1.810300759032993 0  0.5267143351408361 1.87204334603662 0  0.3376657365951991 1.915188104045813 0  0.1456101966176931 1.939258018606077 0  -0.04847837613156995 1.944077901383001 0  -0.2418147025234287 1.929599023042759 0  -0.4330621442094144 1.895882273788899 0  -0.6190521167322631 1.843552246218879 0  -0.7998308264507706 1.772594996007038 0  -0.9726004029542348 1.684034075402224 0  -1.13522059768153 1.578996416296145 0  -1.286585994380864 1.458292773183435 0  -1.42555215730787 1.322717820741946 0  -1.550366238185009 1.174001423206801 0  -1.659398963188953 1.01407403512396 0  -1.752140363635244 0.8437845673606664 0  -1.827455088739859 0.6650986020780295 0  -1.884506931763058 0.4801408832418573 0  -1.923032115368096 0.2895650649049159 0  0.001065369316008962 -0.01153206255420957 0  0.1757324107589675 1.404116055950281 0  -0.3892601046461912 1.363564774257084 0  0.6864801276485911 1.241293700062592 0  -0.900999014071342 1.100854781036811 0  1.14337755283782 0.8562782282991417 0  -1.270640902377111 0.6690684508422509 0  1.379883291131883 0.404020012612318 0  -1.441875325189623 0.1204315542711922 0  1.449148052335 -0.09598882671948682 0  -1.387059131494749 -0.4500833497216989 0  1.308778568325711 -0.6515929491535488 0  -0.4833857868206883 -0.06933533659224096 0  0.48388338836044 -0.07503821848195383 0  -1.163385225809364 -0.8894005924782242 0  -0.2559838902449787 0.3680006882735682 0  -0.2059481360410883 -0.4352077083252427 0  0.2781543807354442 0.353650717033392 0  0.9490579852812956 -1.125934311136462 0  -0.7914035797728434 -1.248325890718977 0  0.4634449472531044 -1.404485136386612 0  -0.3022824950048641 -1.443039935711377 0  0.2343480938209984 -0.4414590564354187 0  0.07871574734806509 -1.399499453836384 0  -0.121720708704863 1.600739051493644 0  -0.7391161443009396 1.423748378945456 0  -1.239904768118276 1.025977302452045 0  1.075252655938061 1.203227996871135 0  -1.542664561822013 0.4622873112817271 0  0.5218533410260574 1.539114892696987 0  -1.602847737376696 -0.1731253200931239 0  1.270910303557694 -0.9859706812836595 0  1.561473156615545 -0.4122273098826132 0  0.01706788032488228 0.5704153569645276 0  -0.5711586982017161 0.231254822577601 0  0.7979336346203105 -1.414045870547938 0  1.021632264819855 -0.7916113034462718 0  0.6339272514916978 -1.143087382828554 0  -0.5109019187638104 -0.4012359737904395 0  1.615574582780458 0.1927988173897964 0  0.5834935005608844 0.2155386653251391 0  1.492562563776066 0.7040335854711428 0  0.8152630936226037 0.9220657829913236 0  -0.5694248034882425 1.077197641172656 0  -0.09430250879517452 1.206726903382942 0  -1.15008265812091 -1.188790013993254 0  -0.5984121960642212 -1.538800006378946 0  -0.002835405801134815 -0.6586426483356004 0  1.233734693127983 -0.3517751852976702 0  -0.9626487670110536 0.7706103956294725 0  -1.263202367127031 -0.1640550953666904 0  0.5639788903951681 -0.3708824270717935 0  -1.451806657595287 -0.74801286492595 0  0.3769566561043848 1.146018785237549 0  -1.209261708983341 0.3382904306142892 0  0.2067841293882439 -1.662594472221798 0  -0.1236911928997596 -1.667707908881943 0  1.106098481801321 0.5387912560360337 0  1.226441142952527 0.08021190076289311 0  0.8969163870754613 1.414900559146872 0  0.2114843345477699 1.676417133151107 0  -0.4843543937486118 -1.209783791581551 0  -0.3893478874815621 1.633944364220227 0  -1.117822618563454 -0.6068350713154873 0  -0.8169488764476857 -0.9753121217313472 0  -1.061647021204739 1.31945947633742 0  1.38933573356644 0.9505637030098825 0  0.009832051093659158 0.3227616161128239 0  -1.523116789077921 0.7262059187557363 0  1.621967298992005 0.4877985069985854 0  -1.690503561508458 0.06964722762987118 0  -1.189336716698476 0.07130141870452281 0  -0.1243654964039442 -1.247636889556946 0  1.683413667777471 -0.1880397272328909 0  0.276942667037313 0.5928033439374009 0  0.2309913988696639 -0.1665596650014894 0  0.2591451833029969 0.09470619851641514 0  -0.007996327037580946 -0.2663950440204395 0  -0.2335848106842998 -0.1375939066894076 0  -0.2289274600927805 0.1180724855022929 0  -1.044795668836764 0.5266584621494108 0  -0.7089453986166481 0.009876280138823496 0  0.7198429985178831 -0.05104972050608741 0  -0.7325788634657481 0.8775223588013574 0  -1.63481668335548 -0.5135738021159595 0  -0.4826991654242365 0.4657140781317655 0  -0.2409139224534836 0.6080682065913461 0  1.072322791282798 -0.5587114375754989 0  1.542617061158787 -0.7507986761305637 0  -0.3828546251792613 -0.6085002838272054 0  0.5722474625790896 0.9840935656450394 0  -0.3175367774288068 1.086842050917929 0  0.5029998171523651 0.4510657533698578 0  1.187873546963609 -1.215261324996313 0  -1.346867971309057 -1.049297536692867 0  -0.9429666327538387 -0.7724660149562438 0  0.2635842677499888 -1.228557015895069 0  0.3994656056942382 -0.6141828951893404 0  0.8185501910073146 -0.9210404861113549 0  -0.6817641499824626 -0.2386899358989913 0  0.948164621851708 0.7190923857173134 0  -0.9312121223380334 -1.45009692591069 0  -1.153615938791732 -0.3805745985129128 0  0.6326302064409502 -1.584664220275477 0  1.129007067122538 0.295624014035918 0  0.1330511313274007 1.110907265926249 0  -0.356102278399052 -1.676257243372309 0  0.202951347064375 -0.6700465659847717 0  1.169565228052071 -0.1442186107773918 0  1.004696829047188 -1.337191686440069 0  0.4181680804837621 -1.618933619775031 0  -0.6162288449482171 1.618073404925685 0  -1.715450174974272 0.3363407201270633 0  -1.449598218876381 0.978264339349918 0  1.291734762104508 1.155668418000662 0  -0.6126210554258619 -1.047449915503575 0  
[...]
<PointData  Vectors="f_907-0"> 
<DataArray  type="Float64"  Name="f_907-0"  NumberOfComponents="3" format="ascii">-3.8631076442560051e-02 -1.1968594156623547e-01 0.0000000000000000e+00  -1.6790093071504777e-02 -1.3314551617291581e-01 0.0000000000000000e+00  8.3606781917267073e-03 -1.4462235516171174e-01 0.0000000000000000e+00  3.6281395039781963e-02 -1.5246930121942015e-01 0.0000000000000000e+00  6.4960654294953651e-02 -1.5368091138744067e-01 0.0000000000000000e+00  9.2411569434909607e-02 -1.4846817202689658e-01 0.0000000000000000e+00  1.1330924431914743e-01 -1.3178269929991132e-01 0.0000000000000000e+00  1.2235757264428565e-01 -1.0410826676883901e-01 0.0000000000000000e+00  1.2437776800762511e-01 -7.4744359417660527e-02 0.0000000000000000e+00  1.2003538946953485e-01 -4.6839197560330094e-02 0.0000000000000000e+00  1.0944559601786927e-01 -2.0190599759992000e-02 0.0000000000000000e+00  9.5354624291349707e-02 3.0582724704820625e-03 0.0000000000000000e+00  7.8671369834234867e-02 2.2023945184466910e-02 0.0000000000000000e+00  5.6601852882201459e-02 3.7492199543533833e-02 0.0000000000000000e+00  3.4611065746576165e-02 4.7712889646015902e-02 0.0000000000000000e+00  1.1801160769985154e-02 5.2990966919923964e-02 0.0000000000000000e+00  -1.1434757804702090e-02 5.3308045486751658e-02 0.0000000000000000e+00  -3.4959301427072438e-02 4.8471750533993427e-02 0.0000000000000000e+00  -5.6238921829531746e-02 3.8801808275380475e-02 0.0000000000000000e+00  -7.6808795896444737e-02 2.4491488785389717e-02 0.0000000000000000e+00  -9.5292894160146135e-02 5.3350089840962320e-03 0.0000000000000000e+00  -1.0910410629824839e-01 -1.7437979627863320e-02 0.0000000000000000e+00  -1.1984899100826629e-01 -4.3638655595964804e-02 0.0000000000000000e+00  -1.2580078126770566e-01 -7.2072087636590898e-02 0.0000000000000000e+00  -1.2455187522213784e-01 -1.0127039560127726e-01 0.0000000000000000e+00  -1.1533372290626462e-01 -1.2844987267893765e-01 0.0000000000000000e+00  -9.4383571579832778e-02 -1.4531134041964450e-01 0.0000000000000000e+00  -6.9000283523348915e-02 -1.5470391056022972e-01 0.0000000000000000e+00  -3.9453243628851803e-02 -1.5280760980871722e-01 0.0000000000000000e+00  -1.0975261897854102e-02 -1.4530500677263700e-01 0.0000000000000000e+00  1.4345097826870231e-02 -1.3501445437034026e-01 0.0000000000000000e+00  3.6589252116278233e-02 -1.2091695663156077e-01 0.0000000000000000e+00  5.5242716237213565e-02 -1.0414532547065278e-01 0.0000000000000000e+00  6.9928756957927662e-02 -8.5470316123879592e-02 0.0000000000000000e+00  8.1031540899444782e-02 -6.7172174323258435e-02 0.0000000000000000e+00  8.8161454642890297e-02 -4.7759734063754208e-02 0.0000000000000000e+00  9.0556887643014408e-02 -2.6621249179997687e-02 0.0000000000000000e+00  9.0340493293009250e-02 -7.9390892397671938e-03 0.0000000000000000e+00  8.5736976571832671e-02 1.0418762400837039e-02 0.0000000000000000e+00  7.8816771879057959e-02 2.6312315172603948e-02 0.0000000000000000e+00  6.8249910054933222e-02 4.0991599250272397e-02 0.0000000000000000e+00  5.6766583305043181e-02 5.2368367669938368e-02 0.0000000000000000e+00  4.1924503947260501e-02 6.1879214879629184e-02 0.0000000000000000e+00  2.5525768752459356e-02 6.8439091096886701e-02 0.0000000000000000e+00  9.3622605919258632e-03 7.1659482375108205e-02 0.0000000000000000e+00  -6.5443110069161280e-03 7.1967797892372398e-02 0.0000000000000000e+00  -2.5194736410081981e-02 6.8898466628470684e-02 0.0000000000000000e+00  -4.0136242782433072e-02 6.3104706261869398e-02 0.0000000000000000e+00  -5.4326929568189124e-02 5.4358929113807637e-02 0.0000000000000000e+00  -6.6987018319000891e-02 4.2782489284254030e-02 0.0000000000000000e+00  -7.8364709190576531e-02 2.8051091782767913e-02 0.0000000000000000e+00  -8.4920978598627073e-02 1.2888742855537908e-02 0.0000000000000000e+00  -8.9319470799019141e-02 -4.6340581068746653e-03 0.0000000000000000e+00  -9.1137490455750605e-02 -2.4615490015259124e-02 0.0000000000000000e+00  -8.8896174804126732e-02 -4.5109335304471927e-02 0.0000000000000000e+00  -8.1502643504833869e-02 -6.3289774104277982e-02 0.0000000000000000e+00  -7.1781182106335883e-02 -8.5377275269309980e-02 0.0000000000000000e+00  -5.6977915633234566e-02 -1.0301308304201852e-01 0.0000000000000000e+00  -1.0916922560513211e-01 5.5727760534705489e-03 0.0000000000000000e+00  -1.0917102297811725e-01 -5.5908510676923916e-03 0.0000000000000000e+00  -1.0819279824480151e-01 -1.5324924686180560e-02 0.0000000000000000e+00  -1.0577963219311413e-01 -2.6922242188879252e-02 0.0000000000000000e+00  -1.0256412633627009e-01 -3.7354413997796959e-02 0.0000000000000000e+00  -9.8030890631933293e-02 -4.8282893286754947e-02 0.0000000000000000e+00  -9.3265962780052045e-02 -5.6991744734489216e-02 0.0000000000000000e+00  -8.7682831100937747e-02 -6.5228243463764227e-02 0.0000000000000000e+00  -7.9470454279964034e-02 -7.5021486731618736e-02 0.0000000000000000e+00  -7.2323276007728476e-02 -8.1962874393464696e-02 0.0000000000000000e+00  -6.4575846446075377e-02 -8.8172693537718699e-02 0.0000000000000000e+00  -5.4584301689647334e-02 -9.4545813625354205e-02 0.0000000000000000e+00  -4.4068733998195581e-02 -1.0001307041779181e-01 0.0000000000000000e+00  -3.4929035032308750e-02 -1.0359265911042588e-01 0.0000000000000000e+00  -2.4316749483424591e-02 -1.0659321890476765e-01 0.0000000000000000e+00  -1.3591932971317583e-02 -1.0848392394437563e-01 0.0000000000000000e+00  -2.7411467841739726e-03 -1.0929945110258676e-01 0.0000000000000000e+00  8.2936751590692911e-03 -1.0900466395007154e-01 0.0000000000000000e+00  1.8020166922728498e-02 -1.0779511577051103e-01 0.0000000000000000e+00  2.9587531022973308e-02 -1.0511907995375272e-01 0.0000000000000000e+00  4.0831224894148456e-02 -1.0137704528694508e-01 0.0000000000000000e+00  4.9769276240635159e-02 -9.7335233612208111e-02 0.0000000000000000e+00  5.9314049656899889e-02 -9.1842824400520509e-02 0.0000000000000000e+00  6.8251867771045888e-02 -8.5400260243301648e-02 0.0000000000000000e+00  7.5610585163804284e-02 -7.8905790605312109e-02 0.0000000000000000e+00  8.3615129270089100e-02 -7.0191259917675594e-02 0.0000000000000000e+00  9.0212665508504111e-02 -6.1518493865839637e-02 0.0000000000000000e+00  9.5860161786200854e-02 -5.2205264203862789e-02 0.0000000000000000e+00  1.0058300906036517e-01 -4.2398996896305878e-02 0.0000000000000000e+00  1.0431166815592129e-01 -3.2158146214687607e-02 0.0000000000000000e+00  1.0729982475822698e-01 -2.0722585660439111e-02 0.0000000000000000e+00  1.0875545607446205e-01 -1.0889832909782729e-02 0.0000000000000000e+00  1.0927814985048823e-01 -9.6745725806088518e-04 0.0000000000000000e+00  1.0864783025338792e-01 1.0862921099537667e-02 0.0000000000000000e+00  1.0693075782772928e-01 2.2578627917149333e-02 0.0000000000000000e+00  1.0445552847706151e-01 3.2209594354133619e-02 0.0000000000000000e+00  1.0107448521265731e-01 4.1576333654677798e-02 0.0000000000000000e+00  9.5528822135026947e-02 5.3093037741323228e-02 0.0000000000000000e+00  9.0326883867626453e-02 6.1572291105737115e-02 0.0000000000000000e+00  8.4335061353754653e-02 6.9522656340924749e-02 0.0000000000000000e+00  7.5501109335079780e-02 7.9019626564624995e-02 0.0000000000000000e+00  6.9011762299646881e-02 8.4725442188872943e-02 0.0000000000000000e+00  5.8490151799292400e-02 9.2328906270357641e-02 0.0000000000000000e+00  4.9991981785862283e-02 9.7236955768330399e-02 0.0000000000000000e+00  3.9935501317631822e-02 1.0179162382150186e-01 0.0000000000000000e+00  2.9622475072491852e-02 1.0525222095766389e-01 0.0000000000000000e+00  1.8874365131561120e-02 1.0769036020428405e-01 0.0000000000000000e+00  9.1419608292665194e-03 1.0892057166117136e-01 0.0000000000000000e+00  -2.7086525039229600e-03 1.0915287467975936e-01 0.0000000000000000e+00  -1.3597093462547127e-02 1.0836828083338780e-01 0.0000000000000000e+00  -2.5433035958834636e-02 1.0629396671836069e-01 0.0000000000000000e+00  -3.3725431266998646e-02 1.0395870157651153e-01 0.0000000000000000e+00  -4.4934598431488941e-02 9.9541588501716446e-02 0.0000000000000000e+00  -5.5487384014915389e-02 9.4169773825434511e-02 0.0000000000000000e+00  -6.3816206060331573e-02 8.8764100281268951e-02 0.0000000000000000e+00  -7.1608399909251844e-02 8.2575284212675376e-02 0.0000000000000000e+00  -8.0035354804163628e-02 7.4257876166648792e-02 0.0000000000000000e+00  -8.7710639621843792e-02 6.5207459681291088e-02 0.0000000000000000e+00  -9.3225764958760657e-02 5.7093468293520716e-02 0.0000000000000000e+00  -9.8509247076456460e-02 4.7432898516501551e-02 0.0000000000000000e+00  -1.0276872921164638e-01 3.7265069931492333e-02 0.0000000000000000e+00  -1.0566119000326163e-01 2.7894832817118999e-02 0.0000000000000000e+00  -1.0820103220016443e-01 1.5321993533974903e-02 0.0000000000000000e+00  4.5851709124324855e-04 1.8530491167196567e-01 0.0000000000000000e+00  1.9030804977736602e-02 8.1388773169247142e-02 0.0000000000000000e+00  -4.1399505832436040e-02 7.4018735565612115e-02 0.0000000000000000e+00  7.0792052460486976e-02 5.4615586885138998e-02 0.0000000000000000e+00  -8.7953956275570941e-02 3.3842537407446506e-02 0.0000000000000000e+00  1.0112938666403481e-01 -3.3536834202525273e-05 0.0000000000000000e+00  -1.0248343660617236e-01 -2.3481147083471661e-02 0.0000000000000000e+00  9.4451161509684758e-02 -5.1874871346217780e-02 0.0000000000000000e+00  -7.8010213197224940e-02 -7.3047300933500051e-02 0.0000000000000000e+00  6.2788666912048818e-02 -8.2590438851189676e-02 0.0000000000000000e+00  -3.7586471703913230e-02 -8.4353791246466234e-02 0.0000000000000000e+00  2.8265194123223373e-02 -8.1974574935967118e-02 0.0000000000000000e+00  -4.6930581167411244e-02 8.4056399483696670e-02 0.0000000000000000e+00  4.6648966232031991e-02 8.3759144609712802e-02 0.0000000000000000e+00  -2.5007499573185991e-02 -8.1396434460197079e-02 0.0000000000000000e+00  -4.1886427390228992e-02 1.1703801597097707e-01 0.0000000000000000e+00  1.3356705344995435e-02 1.7099053262997346e-01 0.0000000000000000e+00  4.5456725209573494e-02 1.1474722060831970e-01 0.0000000000000000e+00  1.7371058648962209e-02 -8.4332625875464889e-02 0.0000000000000000e+00  -9.7233581013201498e-03 -8.3823860677016276e-02 0.0000000000000000e+00  3.9912984270882229e-04 -7.4405138173838301e-02 0.0000000000000000e+00  1.6498697151399835e-03 -7.0700223894594086e-02 0.0000000000000000e+00  -1.5812478165391577e-02 1.6453195747472751e-01 0.0000000000000000e+00  -2.0006475809558025e-03 -5.4295719315702907e-02 0.0000000000000000e+00  -1.1479106574384224e-02 9.7482173714246848e-02 0.0000000000000000e+00  -6.6478696241897908e-02 7.5467279442629737e-02 0.0000000000000000e+00  -1.0181078859856610e-01 2.9653722354720594e-02 0.0000000000000000e+00  9.1402558928052519e-02 4.9258983582333687e-02 0.0000000000000000e+00  -1.0627551616899789e-01 -2.5048115276177285e-02 0.0000000000000000e+00  4.7373771270506973e-02 8.9040674979498177e-02 0.0000000000000000e+00  -8.2613227070005305e-02 -6.0983314734959500e-02 0.0000000000000000e+00  5.4900353323378726e-02 -7.5462463857245948e-02 0.0000000000000000e+00  7.2752740238708896e-02 -6.6380611813992088e-02 0.0000000000000000e+00  2.7828143380280858e-03 1.1093789221685763e-01 0.0000000000000000e+00  -7.3552802664343220e-02 4.0655067166947507e-02 0.0000000000000000e+00  3.0134999720567872e-02 -9.1226550545015217e-02 0.0000000000000000e+00  -2.4753492719661152e-02 -9.7827400314800764e-02 0.0000000000000000e+00  -2.8732704069960254e-02 -6.8896048031712842e-02 0.0000000000000000e+00  2.5197086438735323e-02 5.8977407728126631e-02 0.0000000000000000e+00  9.9733812580348136e-02 -4.1724872092136510e-02 0.0000000000000000e+00  7.4549217270873533e-02 3.5594916769543183e-02 0.0000000000000000e+00  1.0934470632365532e-01 1.0903391385418029e-03 0.0000000000000000e+00  8.7508051682420054e-02 1.0113644346351081e-02 0.0000000000000000e+00  -6.6319739383133985e-02 4.1636145994593157e-02 0.0000000000000000e+00  -1.0751884356171471e-02 6.7782858613448849e-02 0.0000000000000000e+00  -5.4925316867193756e-02 -8.2497661946092121e-02 0.0000000000000000e+00  -2.1630185926251922e-02 -9.4121019423474866e-02 0.0000000000000000e+00  -6.5482101453518337e-04 1.5487721192889758e-01 0.0000000000000000e+00  3.5648327514180016e-03 -1.1261060853647548e-01 0.0000000000000000e+00  -9.5653230836973538e-02 -1.3480710076160479e-02 0.0000000000000000e+00  -2.4914664803303739e-02 -1.1186686362823743e-01 0.0000000000000000e+00  -1.7155649210596757e-02 2.7844074836788028e-02 0.0000000000000000e+00  -6.5756325084570716e-02 -6.7843542774228077e-02 0.0000000000000000e+00  4.5853366929628991e-02 5.7478980823581410e-02 0.0000000000000000e+00  -8.1027128359713277e-02 -7.5573358983742581e-02 0.0000000000000000e+00  7.7597022694629791e-03 -9.6531443402321573e-02 0.0000000000000000e+00  -4.0556567628052282e-03 -9.6477236438353750e-02 0.0000000000000000e+00  9.3581263127475556e-02 -4.9683819023191647e-02 0.0000000000000000e+00  5.3966459615313857e-02 -1.0459293442230233e-01 0.0000000000000000e+00  7.4819189135483563e-02 7.3565561526495266e-02 0.0000000000000000e+00  1.7941225103174779e-02 1.0208285152338439e-01 0.0000000000000000e+00  2.8996841283872622e-02 -5.3526696786606411e-02 0.0000000000000000e+00  -3.3414570893060679e-02 9.7613521660595087e-02 0.0000000000000000e+00  2.5475985974515312e-02 -1.0737752116184059e-01 0.0000000000000000e+00  3.6137669581641496e-02 -8.8995834041637259e-02 0.0000000000000000e+00  -8.4998334751049828e-02 6.4126339457643275e-02 0.0000000000000000e+00  1.0507389847182928e-01 2.7401085046371492e-02 0.0000000000000000e+00  1.8732599312684904e-03 1.4465360355883636e-01 0.0000000000000000e+00  -1.0940578711776933e-01 7.0889383835508147e-03 0.0000000000000000e+00  1.0932605383298692e-01 -1.1366390383171944e-02 0.0000000000000000e+00  -1.0088083146245157e-01 -3.8636098471975772e-02 0.0000000000000000e+00  -4.8205187340173199e-02 -1.0848116321456128e-01 0.0000000000000000e+00  1.1312072914070853e-02 -2.4262746905894611e-02 0.0000000000000000e+00  9.3112228429991978e-02 -4.9871315058268105e-02 0.0000000000000000e+00  4.7104604776719489e-02 8.7133642102629527e-02 0.0000000000000000e+00  1.8930847198641680e-02 1.7180641805232791e-01 0.0000000000000000e+00  3.7592217737069653e-02 1.4597997245897465e-01 0.0000000000000000e+00  -2.1906885223362403e-04 1.9963455284002668e-01 0.0000000000000000e+00  -2.1056692756655660e-02 1.6996987120496387e-01 0.0000000000000000e+00  -3.3496456430071007e-02 1.4990227992718183e-01 0.0000000000000000e+00  -9.0253645443333627e-02 -5.2648260531480952e-02 0.0000000000000000e+00  -6.0817384874933669e-02 -2.4135001846397962e-02 0.0000000000000000e+00  4.8723497701172812e-02 -3.4778955199063641e-02 0.0000000000000000e+00  -8.4080184424464341e-02 1.1253214221157768e-02 0.0000000000000000e+00  -8.5600738876390595e-02 -5.6349818058955788e-02 0.0000000000000000e+00  -7.3461182723700807e-02 5.8706755271007660e-02 0.0000000000000000e+00  -4.0070126702707633e-02 9.1142664931566919e-02 0.0000000000000000e+00  -4.3880728962632558e-02 -1.2130954734287308e-01 0.0000000000000000e+00  7.9483853410810074e-02 -6.2479471021280798e-02 0.0000000000000000e+00  7.1405459137046809e-02 8.5793077977256313e-02 0.0000000000000000e+00  6.8787065617178580e-02 3.3616176850754333e-02 0.0000000000000000e+00  -4.0186299798165306e-02 5.5578848388058245e-02 0.0000000000000000e+00  7.5462320686875736e-02 5.4156408513704603e-02 0.0000000000000000e+00  6.1088527903136791e-02 -8.1538251359945565e-02 0.0000000000000000e+00  -7.0447020390744450e-02 -7.2888299978307397e-02 0.0000000000000000e+00  5.0623879159813562e-02 -1.0815824550383167e-01 0.0000000000000000e+00  -2.2921556349122713e-02 -3.0106915411151784e-02 0.0000000000000000e+00  -7.7499703362550174e-02 7.6232195144993964e-02 0.0000000000000000e+00  -5.1086407188749891e-02 -9.1919172026721466e-02 0.0000000000000000e+00  -1.2883508898024887e-02 -3.3694393059773321e-02 0.0000000000000000e+00  9.4138141675254416e-02 -2.1867087027693303e-02 0.0000000000000000e+00  -4.6044894885493952e-02 -9.3020925887750919e-02 0.0000000000000000e+00  1.6524629521291558e-02 -1.2559095818501564e-01 0.0000000000000000e+00  2.7678396229541241e-02 -9.7513778412348415e-02 0.0000000000000000e+00  7.2436212241983461e-02 -8.6612824381061077e-02 0.0000000000000000e+00  1.7639686198804936e-02 6.1848111692653238e-02 0.0000000000000000e+00  -1.4604905384186444e-02 -9.9811799930778822e-02 0.0000000000000000e+00  -4.2607427977224346e-02 1.2961914551828077e-01 0.0000000000000000e+00  1.5042440170002494e-02 -1.2753269710858420e-01 0.0000000000000000e+00  4.7558201703731595e-02 -8.8669272932133419e-02 0.0000000000000000e+00  1.5675051496464837e-02 -9.6006355042859343e-02 0.0000000000000000e+00  -4.9164664061615598e-02 9.4002962715051458e-02 0.0000000000000000e+00  -1.0904976243923131e-01 -1.3858450023888696e-02 0.0000000000000000e+00  -1.0363087978884590e-01 3.5216322833019793e-02 0.0000000000000000e+00  9.6323299105563295e-02 4.9870130337212791e-02 0.0000000000000000e+00  5.6038612801109174e-02 -6.1938877755169999e-02 0.0000000000000000e+00  1.0199940033947165e-01 -3.0858064161525384e-02 0.0000000000000000e+00  5.8518857407800051e-02 8.9142263549712428e-02 0.0000000000000000e+00  5.2338635019647813e-02 6.9064503238738098e-02 0.0000000000000000e+00  4.7079926185101213e-02 1.1347328341043537e-01 0.0000000000000000e+00  8.0811454934873295e-02 -7.1011711774911002e-02 0.0000000000000000e+00  -1.9440105385188991e-02 8.0625239403332730e-02 0.0000000000000000e+00  1.0295020777111449e-01 -3.4135563327842476e-02 0.0000000000000000e+00  -3.2252895988965122e-02 -4.6872376034963525e-02 0.0000000000000000e+00  1.2815319622420346e-04 -7.2203059541459599e-02 0.0000000000000000e+00  1.3534179675635141e-03 -6.6916678631955426e-02 0.0000000000000000e+00  -7.7923576740128687e-03 -7.7316808695061480e-03 0.0000000000000000e+00  8.3366323506937609e-02 4.9101877095880847e-02 0.0000000000000000e+00  4.8709552240761610e-03 1.2949549754486589e-01 0.0000000000000000e+00  1.3618188426741671e-03 1.8951873644693243e-01 0.0000000000000000e+00  -7.4089411626860557e-02 5.1083553157424834e-02 0.0000000000000000e+00  2.2677238868119500e-03 -1.0453583489926616e-01 0.0000000000000000e+00  -1.8614552056779050e-02 -8.5433596617654595e-02 0.0000000000000000e+00  9.4428338673527179e-02 1.9857700790735705e-02 0.0000000000000000e+00  -5.2531953535466898e-03 1.4259386614249581e-01 0.0000000000000000e+00  2.3237223104887107e-02 -3.6974538767365735e-02 0.0000000000000000e+00  3.2737824644831796e-03 1.0688357171450236e-01 0.0000000000000000e+00  3.0118104624035975e-02 1.0269079841183815e-01 0.0000000000000000e+00  -1.0189617288445139e-01 -2.8059879009826299e-03 0.0000000000000000e+00  -9.1825433542948975e-02 5.8083399228407009e-02 0.0000000000000000e+00  -7.1065136643982146e-02 8.1058716453203603e-02 0.0000000000000000e+00  3.6015368749227707e-02 8.4182508107354170e-02 0.0000000000000000e+00  2.5203894829627364e-02 3.2951703825679470e-03 0.0000000000000000e+00  -5.5952314351845132e-02 1.0462432273702595e-01 0.0000000000000000e+00  1.2315903479559324e-03 -8.5802885767674558e-02 0.0000000000000000e+00  -1.3584832803052237e-02 8.8456014933460905e-02 0.0000000000000000e+00  -5.8611276404921156e-02 6.0839457318744010e-02 0.0000000000000000e+00  -9.6187237049312840e-02 1.2438605391179363e-02 0.0000000000000000e+00  -5.2863701492522071e-02 7.9768702240335901e-02 0.0000000000000000e+00  -8.9782453567260279e-02 -5.4668952956457156e-02 0.0000000000000000e+00  -9.5594572302426947e-02 -4.5946473873087090e-02 0.0000000000000000e+00  7.9453066624086008e-02 -6.6154637862456650e-02 0.0000000000000000e+00  9.1520094272237881e-02 -5.2350082366654872e-02 0.0000000000000000e+00  2.1974422190428585e-03 -8.6473879059525693e-02 0.0000000000000000e+00  -4.9483467746937850e-03 -8.0615908913750839e-02 0.0000000000000000e+00  -8.0933407880348321e-02 5.8245967809156723e-02 0.0000000000000000e+00  -5.8626727127149364e-02 9.0430803670604437e-02 0.0000000000000000e+00  5.8017647048218247e-02 1.0063168349907484e-01 0.0000000000000000e+00  -3.9515619487996680e-02 -9.7785884941869003e-02 0.0000000000000000e+00  