<?xml version="1.0"?>
<VTKFile type="UnstructuredGrid"  version="0.1"  >
<UnstructuredGrid>
<Piece  NumberOfPoints="1173" NumberOfCells="2198">
<Points>
<DataArray  type="Float64"  NumberOfComponents="3"  format="ascii">-1.01273411026625 0.1557918216341995 0  -1.006995057994956 0.04485963808770999 0  -0.988481318061124 -0.06469212074654014 0  -0.9575831941044255 -0.1715087672506425 0  -0.9144866440775088 -0.2743703324874083 0  -0.8598290162021044 -0.3717272422541871 0  -0.7945876796412096 -0.4618965679845078 0  -0.7203841674118092 -0.5436021571971151 0  -0.640222592710993 -0.6146008025471313 0  -0.5555125126403945 -0.6750014434783427 0  -0.4668347490172404 -0.7254043971052736 0  -0.3743592637691585 -0.7666831842851115 0  -0.2786631731625844 -0.7983648068352198 0  -0.1810736092046933 -0.820549547044939 0  -0.08266534237358417 -0.8330227153263472 0  0.01590734596107678 -0.8360538165545175 0  0.1149204317985186 -0.8295524889761232 0  0.2130210510332669 -0.8136698010697159 0  0.3097966678817557 -0.7881609881931535 0  0.4039864917141375 -0.7530679489379222 0  0.4955060838620233 -0.7083430354620375 0  0.5823496208750295 -0.6547028156926455 0  0.6650514464910918 -0.5913405588690095 0  0.7430205254261151 -0.5172076084964494 0  0.8145560821494067 -0.4324993596587208 0  0.8763577106923375 -0.3396781074198479 0  0.9272523178491241 -0.2407073016007843 0  0.9662010331391508 -0.1371151002027745 0  0.9935032667814114 -0.02902655752634718 0  1.008103678172338 0.08166022663603677 0  1.009835011113002 0.1926588168015493 0  0.9989396133537251 0.3021941803397707 0  0.9755700338509627 0.4103376417801131 0  0.9398813331789656 0.515441876677061 0  0.8929492272021265 0.6150826053630321 0  0.8347608279981398 0.7089128672170179 0  0.7665718732128642 0.795847852066797 0  0.6887773488268742 0.8750882888800591 0  0.6034288994481185 0.9447702697797776 0  0.5110559442627021 1.004751232771216 0  0.4117198282325678 1.054648334882997 0  0.3084230551347422 1.093254450232912 0  0.2015476371880767 1.120825395213602 0  0.0917898406560731 1.136772994458252 0  -0.01932196123835625 1.140870699715723 0  -0.1294893160232882 1.132805142621391 0  -0.2385865082227129 1.113012054257877 0  -0.3447167169242822 1.081630177575468 0  -0.4465009715742472 1.039195118483036 0  -0.5434211343273104 0.9858640402642682 0  -0.6344392745170691 0.9220243540894971 0  -0.7170119728897487 0.8493587602651508 0  -0.7915442822247252 0.767755019358213 0  -0.8565079478101844 0.6784447284565006 0  -0.9110924000289157 0.5823309011477416 0  -0.9544958459239203 0.4808204811781932 0  -0.9862324245840436 0.3748439011463849 0  -1.005751029465049 0.266013716298902 0  -2.364199649368278 0.1018073134883243 0  -2.364207339572961 -0.1018114687938217 0  -2.346703788833036 -0.3046700459670548 0  -2.311819747387175 -0.505273870104038 0  -2.259832686715824 -0.7021373771034963 0  -2.191099761766651 -0.8938039843152874 0  -2.10615890179374 -1.07885969829264 0  -2.005620752356123 -1.255917562919475 0  -1.890229733904873 -1.423683220005336 0  -1.760850484096784 -1.580906203030129 0  -1.618426254090914 -1.726424546598963 0  -1.464025408233119 -1.859161838921885 0  -1.29878297031492 -1.97813576838962 0  -1.123927071898123 -2.082460622391936 0  -0.9407483615504676 -2.171369842468628 0  -0.7505999261231165 -2.244204811056748 0  -0.5548997530169899 -2.300422785120246 0  -0.3550912277713816 -2.339602294984382 0  -0.1526557279510594 -2.361472726800696 0  0.05091489576841598 -2.365847114760166 0  0.2541073815151773 -2.352713069305979 0  0.4554174975985839 -2.32216635476321 0  0.6533539822558418 -2.274413819101702 0  0.8464584286554515 -2.209833648021428 0  1.033291419920651 -2.128887772964208 0  1.212477272125186 -2.032179435225755 0  1.382682898216233 -1.920426855433941 0  1.542655389570556 -1.794453790580822 0  1.691201231855807 -1.655199960043747 0  1.827226462306919 -1.503681064396142 0  1.949727421196658 -1.341037464709977 0  2.057790292278995 -1.168465749919479 0  2.150626307373817 -0.9872462447617849 0  2.227531077378806 -0.7987156335673495 0  2.287940823304983 -0.6042656262866839 0  2.331423739442772 -0.4053471495805601 0  2.357637971269342 -0.2034316437584712 0  2.366398362047343 1.594882119110008e-07 0  2.357632270446171 0.203425289065239 0  2.331423004428602 0.4053475376767178 0  2.287947662885941 0.604265612338199 0  2.227533326624569 0.7987123253373778 0  2.150627167102119 0.9872422611342803 0  2.057798769272356 1.168468481272201 0  1.949726683334136 1.341039157537816 0  1.827232593156529 1.503685603190913 0  1.691205497962242 1.655200444368979 0  1.542653649292475 1.794456196358684 0  1.38268750362907 1.920424824702942 0  1.212473821568939 2.032173831081904 0  1.033289016713244 2.128890711049829 0  0.84646096233471 2.209833343383378 0  0.6533549956874092 2.274414597948096 0  0.4554208305458571 2.322166597948718 0  0.2541079731165219 2.352719504053267 0  0.05091316171825956 2.365857185228119 0  -0.1526567428837575 2.361472707265361 0  -0.355090559393363 2.339603340815062 0  -0.5548989140432409 2.300423584980868 0  -0.7506002299723283 2.244198489839843 0  -0.9407439877500021 2.171365911835692 0  -1.123923236539051 2.082457102119879 0  -1.29878234495051 1.978136598181772 0  -1.464024711463608 1.859163175017879 0  -1.618423353170859 1.726420000126694 0  -1.760842708894712 1.580901582516171 0  -1.890226476569335 1.423679328945633 0  -2.005619791633909 1.25592036589807 0  -2.106161198987563 1.078858361149843 0  -2.191102764224792 0.8938034693464992 0  -2.259825614538934 0.7021372295437515 0  -2.311821003203472 0.505272000238329 0  -2.346697237452343 0.3046685312065294 0  -0.000632159867218257 0.167316855080905 0  0.1034892682689757 -1.605644177936786 0  -0.7052889196988238 -1.456821315963686 0  0.8165553583752537 -1.396048104994724 0  -1.351774146665743 -0.9341352777169166 0  1.392309767393049 -0.8763450938666819 0  -1.647761212033293 -0.2949654140644075 0  1.660722116256806 -0.224193198607961 0  -1.653480920492548 0.4252757226276838 0  1.635271758232399 0.4965040408842606 0  1.297043591149853 1.1509037170214 0  -1.344503100938269 1.093361972447318 0  -0.7917086357910594 1.556837317704108 0  0.7374484472010706 1.583358171832045 0  0.1144291780062545 1.752799305410862 0  -0.5079160625393111 0.08703018992042619 0  0.5113811351792504 0.1567342846819123 0  -0.3053807739010317 0.5558610695376752 0  0.2438311568232843 -0.2647993318957962 0  0.2536011141811506 0.5877333215997229 0  -0.3568672700356799 -1.829141534944741 0  -1.213160348508171 -1.418468441717968 0  -0.377978671328054 1.838453295644803 0  1.306262516583968 -1.354463556834758 0  0.6065189794202396 -1.811645991018906 0  -0.2406608441043321 -0.2961181658487202 0  -0.8852704129885234 -1.028353600212131 0  -1.768593133748064 -0.8136140087973525 0  1.793998401211207 -0.6552527802227682 0  -0.2002682389727717 -1.277176081096634 0  0.9380654884610046 -0.9621782573256392 0  0.3943739163959636 -1.234588632186642 0  -1.958210942884748 -0.006154902208151222 0  1.912530801863721 0.1502868969464141 0  -1.793427821543049 0.8145446452323976 0  1.681450044958512 0.9392310578907541 0  1.293710465332518 -0.4634563047312938 0  -1.268383853549727 -0.5025823576176854 0  -1.218251837928881 1.508263210895085 0  1.161712781359386 1.558430865558053 0  -0.0005686734019434081 -1.982933333527659 0  -0.4210466277772912 1.454945850150461 0  0.468181772470938 1.929581849753472 0  -0.7426257287182241 -1.842872940569091 0  1.090119337430505 -1.670334494271972 0  1.429428709809431 0.1219207443557749 0  -0.5281309172163098 -1.125400610201381 0  -1.410637491771107 0.09298469281810956 0  1.295554472593201 0.7307977208205649 0  -1.424207075510962 0.7217179734134211 0  -1.553451571615267 -1.256841340283713 0  1.624533719382116 -1.16845978082975 0  -0.9679101549218664 1.201831397200471 0  0.9015001009089846 1.213315834016176 0  -1.949167936850196 -0.5013118990483837 0  1.985107810135795 -0.3638507154093075 0  0.3723027833689306 1.467513672975901 0  -0.7314784599178478 1.900288469205393 0  -1.684685026317425 1.141991217628832 0  -0.09116841872212135 2.027707846421738 0  -1.997353407173541 0.3440400515763145 0  -1.01300396895976 -0.7245827653006486 0  -0.03881123788325423 0.7926348473058228 0  1.909997107776897 0.6977266457129387 0  0.5727161995638644 -0.1865806311281289 0  -0.6219544922321137 0.4069738700134985 0  0.5830272592603304 0.4924120262780475 0  -1.129098515440734 0.8481595208368466 0  1.536582865889823 1.371357467029092 0  0.7849646287004621 1.899683876514652 0  -0.9762392826123539 -1.628408938687988 0  0.3348246808783558 -2.010235187483322 0  -1.313774557804289 0.4056140279401052 0  0.04660255512371569 1.445104191020506 0  1.299635290851725 0.4094870315453487 0  -1.030979958573277 1.774316892323253 0  1.054820034226992 0.9343238283525683 0  1.037457828539011 -0.6640738118478445 0  -1.27382874854087 -0.193928050446256 0  0.6747411376141679 -1.118257124817239 0  -0.5865418378933438 -0.224196883790495 0  0.01398801211335428 -0.4935782301614743 0  0.08859577629464618 -1.155709004406786 0  0.4149293620764747 -1.553843921895188 0  1.280525293765975 -0.1573205188799482 0  -0.6662979368134329 1.265671741596258 0  -1.482931714995058 1.365560628982175 0  0.6105921616000912 1.284078686187359 0  1.841234412969895 -0.9551115485792896 0  -1.569011697861463 -0.5832636925307942 0  -0.1573473694982801 1.651080933129017 0  -0.191074593999775 -1.577923305753787 0  0.1971816623782657 2.02881881655878 0  -0.01938464831656827 0.460787309980693 0  -1.671514709854051 -0.01735195332086124 0  1.899239933235437 0.4229660485829657 0  -1.245402603946378 -1.693895315574771 0  0.8425560874472438 -1.942241582346917 0  -0.4486591897058487 -1.37581471389785 0  1.202288623518225 -1.086276985691486 0  -0.008625987774685231 -0.1219186464408602 0  -0.240327514630409 0.0254229656656622 0  -0.2423461323207982 0.2952533009456964 0  2.091297825160701 -0.09375889141477319 0  1.576243113782955 -0.4827361184340667 0  -0.7613830582479204 0.1176468835553365 0  0.7414092481494415 0.2744436708091272 0  0.22399001023706
[...]
<PointData  Vectors="f_3145-0"> 
<DataArray  type="Float64"  Name="f_3145-0"  NumberOfComponents="3" format="ascii">-7.2970024951917768e-03 -7.5567101825576993e-02 0.0000000000000000e+00  9.9009716465739087e-03 -8.6999670464572604e-02 0.0000000000000000e+00  2.9063762044040431e-02 -9.6402163324287915e-02 0.0000000000000000e+00  5.0594350534815084e-02 -1.0407110674419483e-01 0.0000000000000000e+00  7.4839939584754420e-02 -1.0982771174012602e-01 0.0000000000000000e+00  1.0046932438769049e-01 -1.1192957155535857e-01 0.0000000000000000e+00  1.2565373415417466e-01 -1.0899634756253156e-01 0.0000000000000000e+00  1.4723678525695949e-01 -9.9115628452826274e-02 0.0000000000000000e+00  1.5601779929932086e-01 -7.8093535121828025e-02 0.0000000000000000e+00  1.5248164572067061e-01 -5.1939315200527802e-02 0.0000000000000000e+00  1.3970383701785835e-01 -2.5698745376105617e-02 0.0000000000000000e+00  1.2059367053839654e-01 -2.4413728347986966e-03 0.0000000000000000e+00  9.6790879783840308e-02 1.6879377395097157e-02 0.0000000000000000e+00  6.7647155436880185e-02 3.1712837604876913e-02 0.0000000000000000e+00  3.3393721753399760e-02 4.0770072091323974e-02 0.0000000000000000e+00  -3.8723591199060657e-03 4.3249199189315038e-02 0.0000000000000000e+00  -3.9449990066596052e-02 3.9355030089749013e-02 0.0000000000000000e+00  -7.2692231231531582e-02 2.8750160311444527e-02 0.0000000000000000e+00  -1.0091411617545995e-01 1.2302341716884638e-02 0.0000000000000000e+00  -1.2419796959870100e-01 -8.3798247393341869e-03 0.0000000000000000e+00  -1.4012030428856481e-01 -3.1678675494891909e-02 0.0000000000000000e+00  -1.5200943140670831e-01 -5.8120681681045810e-02 0.0000000000000000e+00  -1.5446858608821606e-01 -8.4232025051802620e-02 0.0000000000000000e+00  -1.4347362265054917e-01 -1.0392001741243621e-01 0.0000000000000000e+00  -1.2042171135352310e-01 -1.1182301498556078e-01 0.0000000000000000e+00  -9.4603160490219815e-02 -1.1303646451158945e-01 0.0000000000000000e+00  -6.9269746615200273e-02 -1.1049337608266756e-01 0.0000000000000000e+00  -4.6382857135114725e-02 -1.0639940326454705e-01 0.0000000000000000e+00  -2.4721839118880245e-02 -9.7150826228212708e-02 0.0000000000000000e+00  -5.6163605569832147e-03 -8.4927622805748545e-02 0.0000000000000000e+00  1.0483616575682390e-02 -7.2814771338983883e-02 0.0000000000000000e+00  2.4236817167810103e-02 -6.2704427979977745e-02 0.0000000000000000e+00  3.5276567340252911e-02 -4.9086806492431981e-02 0.0000000000000000e+00  4.3220317601410339e-02 -3.3633714568322509e-02 0.0000000000000000e+00  4.9602756492956104e-02 -2.0907315255819754e-02 0.0000000000000000e+00  5.3327352817318499e-02 -7.1813426159772313e-03 0.0000000000000000e+00  5.4489664469871732e-02 6.3854126715348217e-03 0.0000000000000000e+00  5.1735209152621579e-02 2.0599371775099611e-02 0.0000000000000000e+00  4.9159886836787271e-02 3.1373023155858958e-02 0.0000000000000000e+00  4.5103526724131503e-02 4.0859853772241161e-02 0.0000000000000000e+00  3.5972196333070972e-02 5.0613017142353375e-02 0.0000000000000000e+00  2.8889071777498356e-02 5.6975989145841122e-02 0.0000000000000000e+00  2.0416799862709226e-02 6.1867654502682258e-02 0.0000000000000000e+00  9.6601414762492281e-03 6.5001564170308265e-02 0.0000000000000000e+00  -2.3053243805587287e-03 6.6066818879566683e-02 0.0000000000000000e+00  -1.1582198438625135e-02 6.4920612684169779e-02 0.0000000000000000e+00  -2.2619918029460191e-02 6.1446848851590706e-02 0.0000000000000000e+00  -3.1954081771543075e-02 5.5882866559189705e-02 0.0000000000000000e+00  -3.9018783297115431e-02 4.8932172378425808e-02 0.0000000000000000e+00  -4.5746480060077595e-02 3.9770516942071156e-02 0.0000000000000000e+00  -5.2520944992102872e-02 2.7616772531783285e-02 0.0000000000000000e+00  -5.3676136498106271e-02 1.7042605700930906e-02 0.0000000000000000e+00  -5.4495828409627758e-02 3.9880394973036380e-03 0.0000000000000000e+00  -5.2771455157401399e-02 -9.4950258862134453e-03 0.0000000000000000e+00  -4.8809879324327135e-02 -2.3650839868468027e-02 0.0000000000000000e+00  -4.2122727914072747e-02 -3.6946529665258111e-02 0.0000000000000000e+00  -3.3260782230991444e-02 -5.0901153513475739e-02 0.0000000000000000e+00  -2.1731951388356843e-02 -6.4006549887636224e-02 0.0000000000000000e+00  -1.3420652431470725e-01 5.7777379130172727e-03 0.0000000000000000e+00  -1.3424400670028314e-01 -5.8015544171268110e-03 0.0000000000000000e+00  -1.3325144912506381e-01 -1.7300218732963342e-02 0.0000000000000000e+00  -1.3124104324051997e-01 -2.8682664002610388e-02 0.0000000000000000e+00  -1.2832249273189900e-01 -3.9851245273688024e-02 0.0000000000000000e+00  -1.2438020937988624e-01 -5.0735924930588934e-02 0.0000000000000000e+00  -1.1958642387892390e-01 -6.1275312431855015e-02 0.0000000000000000e+00  -1.1389051868260144e-01 -7.1305864121748636e-02 0.0000000000000000e+00  -1.0732747005729071e-01 -8.0845800309792298e-02 0.0000000000000000e+00  -1.0000495035707460e-01 -8.9771060997576507e-02 0.0000000000000000e+00  -9.1900971446637933e-02 -9.8031871913633370e-02 0.0000000000000000e+00  -8.3140448754856142e-02 -1.0557398950898907e-01 0.0000000000000000e+00  -7.3756405450116330e-02 -1.1233699707080290e-01 0.0000000000000000e+00  -6.3838084964314201e-02 -1.1825058532734838e-01 0.0000000000000000e+00  -5.3435446051165611e-02 -1.2330123980397392e-01 0.0000000000000000e+00  -4.2615317035901885e-02 -1.2744697014652862e-01 0.0000000000000000e+00  -3.1507359929957603e-02 -1.3064068167436294e-01 0.0000000000000000e+00  -2.0163832391686926e-02 -1.3283370090386634e-01 0.0000000000000000e+00  -8.6836212440080263e-03 -1.3410387635174809e-01 0.0000000000000000e+00  2.8878694801154859e-03 -1.3432034874256449e-01 0.0000000000000000e+00  1.4430073232519290e-02 -1.3357885715665938e-01 0.0000000000000000e+00  2.5860887889829088e-02 -1.3187773080194468e-01 0.0000000000000000e+00  3.7092549700414985e-02 -1.2913476742471830e-01 0.0000000000000000e+00  4.8074209375131627e-02 -1.2549091867528850e-01 0.0000000000000000e+00  5.8673649305102341e-02 -1.2089612885441607e-01 0.0000000000000000e+00  6.8858249241566569e-02 -1.1539968031156095e-01 0.0000000000000000e+00  7.8516166424365610e-02 -1.0905457535091795e-01 0.0000000000000000e+00  8.7608301882964673e-02 -1.0189267780393028e-01 0.0000000000000000e+00  9.6024536885432249e-02 -9.4001111322456782e-02 0.0000000000000000e+00  1.0373560245346791e-01 -8.5358917452309779e-02 0.0000000000000000e+00  1.1069621812971973e-01 -7.6125134637940156e-02 0.0000000000000000e+00  1.1682394270990676e-01 -6.6327848581976365e-02 0.0000000000000000e+00  1.2212617050470749e-01 -5.6055405016107208e-02 0.0000000000000000e+00  1.2647949062153457e-01 -4.5364127567736771e-02 0.0000000000000000e+00  1.2988340465395518e-01 -3.4302203760366787e-02 0.0000000000000000e+00  1.3238542645110235e-01 -2.3010663425465667e-02 0.0000000000000000e+00  1.3386911169471352e-01 -1.1576555949692606e-02 0.0000000000000000e+00  1.3436861601099737e-01 1.3890754308489816e-07 0.0000000000000000e+00  1.3384144918611010e-01 1.1543014066691861e-02 0.0000000000000000e+00  1.3238096326007284e-01 2.3016897369797423e-02 0.0000000000000000e+00  1.2991725650269020e-01 3.4299660168791851e-02 0.0000000000000000e+00  1.2649052201094796e-01 4.5347163948468328e-02 0.0000000000000000e+00  1.2212972914967979e-01 5.6037048538541460e-02 0.0000000000000000e+00  1.1686575000733125e-01 6.6339850440363793e-02 0.0000000000000000e+00  1.1069330807438046e-01 7.6131810969007438e-02 0.0000000000000000e+00  1.0376430838982832e-01 8.5382043837126470e-02 0.0000000000000000e+00  9.6047335893632624e-02 9.4001335996638208e-02 0.0000000000000000e+00  8.7599508456394803e-02 1.0190427428288498e-01 0.0000000000000000e+00  7.8540045653864576e-02 1.0904382001310044e-01 0.0000000000000000e+00  6.8841004693053667e-02 1.1537268754689560e-01 0.0000000000000000e+00  5.8661588063024163e-02 1.2091061143741007e-01 0.0000000000000000e+00  4.8087846146166270e-02 1.2548930566803768e-01 0.0000000000000000e+00  3.7097024285661855e-02 1.2913904900526590e-01 0.0000000000000000e+00  2.5877797922997145e-02 1.3187922467955468e-01 0.0000000000000000e+00  1.4431358649844118e-02 1.3361087768846855e-01 0.0000000000000000e+00  2.8788368748249196e-03 1.3437001333969867e-01 0.0000000000000000e+00  -8.6856377820509340e-03 1.3410438620120979e-01 0.0000000000000000e+00  -2.0161868210027165e-02 1.3283903781140990e-01 0.0000000000000000e+00  -3.1502538758747554e-02 1.3064506007627236e-01 0.0000000000000000e+00  -4.2615867187951455e-02 1.2741693777890886e-01 0.0000000000000000e+00  -5.3415320390277098e-02 1.2328178935615847e-01 0.0000000000000000e+00  -6.3817570976678117e-02 1.1823457251686728e-01 0.0000000000000000e+00  -7.3753871163243917e-02 1.1234090446062271e-01 0.0000000000000000e+00  -8.3138454590468508e-02 1.0557941115716975e-01 0.0000000000000000e+00  -9.1884024103013592e-02 9.8012549753780737e-02 0.0000000000000000e+00  -9.9966964986887133e-02 8.9748634604803396e-02 0.0000000000000000e+00  -1.0731350346373228e-01 8.0824215219996443e-02 0.0000000000000000e+00  -1.1388542317360054e-01 7.1319525695795749e-02 0.0000000000000000e+00  -1.1959788941228051e-01 6.1267602892528639e-02 0.0000000000000000e+00  -1.2439428313835270e-01 5.0734727370574009e-02 0.0000000000000000e+00  -1.2828805633455065e-01 3.9850043970282162e-02 0.0000000000000000e+00  -1.3124672448053304e-01 2.8675545636709820e-02 0.0000000000000000e+00  -1.3321945543517930e-01 1.7293814477623126e-02 0.0000000000000000e+00  -2.0768962365610940e-03 1.2399145794306324e-01 0.0000000000000000e+00  2.7983914321920949e-03 -7.3276459487732593e-02 0.0000000000000000e+00  -2.4239586815591255e-02 -7.2488197029003734e-02 0.0000000000000000e+00  2.8404067731989190e-02 -7.0434345865312262e-02 0.0000000000000000e+00  -4.0921995230560039e-02 -5.1131807183128632e-02 0.0000000000000000e+00  4.2536813578100532e-02 -4.9897272518151153e-02 0.0000000000000000e+00  -5.3932198035898146e-02 -5.1710615894159422e-02 0.0000000000000000e+00  5.6852288816627440e-02 -5.0345578540644254e-02 0.0000000000000000e+00  -8.7160965422128270e-02 -3.4185040933459039e-02 0.0000000000000000e+00  8.8824383642707574e-02 -3.0214780116311544e-02 0.0000000000000000e+00  9.9460465499287845e-02 2.1684351822844602e-02 0.0000000000000000e+00  -1.0028425702651056e-01 1.6706246357424168e-02 0.0000000000000000e+00  -7.1668001209105645e-02 7.1945350512969644e-02 0.0000000000000000e+00  6.8440396180169158e-02 7.4780460398366125e-02 0.0000000000000000e+00  1.2144757522588740e-02 9.9916890936300365e-02 0.0000000000000000e+00  -2.6940530661848056e-02 4.8768512592822388e-02 0.0000000000000000e+00  2.8719996708564559e-02 5.0149101186718052e-02 0.0000000000000000e+00  -2.9212852158098927e-02 8.1469278500983511e-02 0.0000000000000000e+00  -2.2274585943138227e-02 1.1353608314917213e-01 0.0000000000000000e+00  2.3675226294328694e-02 8.6011658530724816e-02 0.0000000000000000e+00  -2.0843174287866768e-02 -1.0325032337823267e-01 0.0000000000000000e+00  -6.9154531196222738e-02 -7.6069906945770510e-02 0.0000000000000000e+00  -3.4412721287879852e-02 1.0622756389713897e-01 0.0000000000000000e+00  7.4524224191880956e-02 -7.2679105990083162e-02 0.0000000000000000e+00  3.6746265623779167e-02 -1.0418119905250874e-01 0.0000000000000000e+00  2.3270501888684517e-02 1.1179645162342444e-01 0.0000000000000000e+00  1.5580684268196528e-02 -5.7422658624904817e-02 0.0000000000000000e+00  -9.3313694520075943e-02 -5.1627989292370162e-02 0.0000000000000000e+00  9.0350969396555597e-02 -4.6934079956736346e-02 0.0000000000000000e+00  1.3670243463619057e-02 -3.5031671848882354e-02 0.0000000000000000e+00  -1.8091910314904074e-02 -5.7106234062617049e-02 0.0000000000000000e+00  -2.1299421568091920e-02 -4.2896185912109280e-02 0.0000000000000000e+00  -1.0821628715371114e-01 -3.0531094616203031e-02 0.0000000000000000e+00  1.0597476696668694e-01 -2.6673488454553130e-02 0.0000000000000000e+00  -1.1917432139015212e-01 1.1084651773527129e-02 0.0000000000000000e+00  1.1542509950230426e-01 1.6056552107920466e-02 0.0000000000000000e+00  -1.8383298925229854e-02 -6.1979415812983295e-02 0.0000000000000000e+00  2.2449510741166141e-02 -6.2914396279332527e-02 0.0000000000000000e+00  -9.7829899406563420e-02 6.7096444894159099e-02 0.0000000000000000e+00  9.4773044315185392e-02 7.1905239294780515e-02 0.0000000000000000e+00  -2.5644793741910282e-04 -1.1730126156803021e-01 0.0000000000000000e+00  -4.1660647989047443e-02 6.8095104447740640e-02 0.0000000000000000e+00  4.1338343122012899e-02 1.1332191811570649e-01 0.0000000000000000e+00  -4.7798482673943536e-02 -1.0785369302245056e-01 0.0000000000000000e+00  6.9302990254875005e-02 -9.5777657063545699e-02 0.0000000000000000e+00  3.1665975193132155e-02 -6.4756623924229387e-02 0.0000000000000000e+00  3.7212424461759763e-02 -5.0035491184155435e-02 0.0000000000000000e+00  -2.7265126573290832e-02 -6.7738211151992037e-02 0.0000000000000000e+00  7.5059765471226461e-02 -2.8542161665756852e-02 0.0000000000000000e+00  -8.5607476904198468e-02 -2.3676920337012030e-02 0.0000000000000000e+00  -9.2118610803325035e-02 -6.9256975710218965e-02 0.0000000000000000e+00  9.5309479347523957e-02 -6.4705365645177731e-02 0.0000000000000000e+00  -8.0514572391862438e-02 2.6540341845772253e-02 0.0000000000000000e+00  7.6760008198742319e-02 2.8679762850551190e-02 0.0000000000000000e+00  -1.0684392746011882e-01 -4.2588843339978109e-02 0.0000000000000000e+00  1.0992257311510226e-01 -3.7153957690381940e-02 0.0000000000000000e+00  3.7572564442095530e-02 6.9868297823823589e-02 0.0000000000000000e+00  -5.9990536880246075e-02 1.0918010711736649e-01 0.0000000000000000e+00  -1.1865975742305175e-01 3.9989120075726262e-02 0.0000000000000000e+00  -7.1788313694760757e-03 1.2339653562689794e-01 0.0000000000000000e+00  -1.2093391050565233e-01 -1.0514286401624273e-02 0.0000000000000000e+00  5.5423823055795685e-02 -6.2052818615299196e-02 0.0000000000000000e+00  -4.4814702929388888e-03 8.4152399553547516e-02 0.0000000000000000e+00  1.2297584194308180e-01 9.8414592251639781e-03 0.0000000000000000e+00  -1.8465855981465565e-02 1.0605813995468800e-02 0.0000000000000000e+00  -4.3233807362766191e-02 2.7752900353683482e-02 0.0000000000000000e+00  4.2802526563431878e-02 3.6157782612613425e-02 0.0000000000000000e+00  -7.4328886747285022e-02 -1.5962646569849494e-02 0.0000000000000000e+00  1.1194577418262608e-01 5.9498362549284665e-02 0.0000000000000000e+00  6.4079633154430202e-02 1.0836243343492959e-01 0.0000000000000000e+00  -5.9234154454773216e-02 -9.0987910995785112e-02 0.0000000000000000e+00  2.1365998249896274e-02 -1.2025085794127958e-01 0.0000000000000000e+00  -4.7665313975951411e-02 -5.7004408625317041e-02 0.0000000000000000e+00  5.0676527103619478e-03 7.3957745588493065e-02 0.0000000000000000e+00  4.5000173704940374e-02 -5.8988130340886902e-02 0.0000000000000000e+00  -8.1536851393975623e-02 9.6149550783237211e-02 0.0000000000000000e+00  7.4935534082171115e-02 -7.3579506152253622e-03 0.0000000000000000e+00  -5.8292048996992314e-02 -6.6460898045534469e-02 0.0000000000000000e+00  2.0055022387450563e-02 -7.9124929298963101e-02 0.0000000000000000e+00  -2.4435723089628589e-02 -5.7504185993854845e-02 0.0000000000000000e+00  2.6070433734996758e-02 -1.9996587901023525e-03 0.0000000000000000e+00  -4.5575670910302010e-03 1.1970928427939322e-01 0.0000000000000000e+00  -1.1283922449571165e-02 -1.4413724252004170e-02 0.0000000000000000e+00  1.2118514369035702e-02 -7.3554180996094023e-02 0.0000000000000000e+00  -1.5543687540280746e-02 -7.9492905299146169e-02 0.0000000000000000e+00  -6.1274688174438346e-02 4.4478680159589286e-02 0.0000000000000000e+00  -1.1038245623331557e-01 5.6927484705991072e-02 0.0000000000000000e+00  5.7965699288923346e-02 4.6924913342432963e-02 0.0000000000000000e+00  1.0747986744483459e-01 -5.6227727690481642e-02 0.0000000000000000e+00  -4.7483236107885962e-02 -5.0210671925530498e-02 0.0000000000000000e+00  -1.5241277747898539e-02 9.0755906168349554e-02 0.0000000000000000e+00  -4.5204787151755174e-03 -7.1101982288712021e-02 0.0000000000000000e+00  1.7394273146223896e-02 1.2298873328246801e-01 0.0000000000000000e+00  -3.0409198987900142e-03 1.0641059515255394e-01 0.0000000000000000e+00  -6.3814676940901802e-02 -5.0438817116719104e-02 0.0000000000000000e+00  1.1374146233817653e-01 -1.2989733720037278e-02 0.0000000000000000e+00  -8.0306423104024902e-02 -9.7674259985211564e-02 0.0000000000000000e+00  5.4639245867212680e-02 -1.1556736150610303e-01 0.0000000000000000e+00  1.9255766667086313e-03 -5.7455574636940669e-02 0.0000000000000000e+00  3.8666020256045999e-02 -5.5805195562117292e-02 0.0000000000000000e+00  -2.2652928036625075e-03 1.3266369244323453e-01 0.0000000000000000e+00  -1.3993274657236737e-02 1.1033696899892570e-01 0.0000000000000000e+00  -2.3106302817161476e-02 1.0121301337065020e-01 0.0000000000000000e+00  1.2199489605705277e-01 -2.3545818448547546e-02 0.0000000000000000e+00  4.4303985991796170e-02 -5.0110925246935029e-02 0.0000000000000000e+00  -2.0118209396858735e-02 -2.6829993467990081e-02 0.0000000000000000e+00  3.6524533453118034e-02 -9.9508389534006952e-03 0.0000000000000000e+00  2.2431474829983419e-02 7.4849037680119301e-02 0.0000000000000000e+00  -2.9568860272245347e-02 7.1054829535986644e-02 0.0000000000000000e+00  -4.4525879147984858e-02 4.5677217120782161e-02 0.0000000000000000e+00  -1.1724823955972927e-01 -4.9428397946177640e-03 0.0000000000000000e+00  -8.0023507741830036e-02 3.8277413496485960e-02 0.0000000000000000e+00  -3.5576374616939133e-02 -1.2177514332945737e-01 0.0000000000000000e+00  2.1122402938443283e-02 9.9763534476393953e-02 0.0000000000000000e+00  9.6473054169781778e-03 1.1037608836139300e-01 0.0000000000000000e+00  -2.7748114168088211e-02 -8.8627416990976773e-02 0.0000000000000000e+00  -1.6774539803418052e-02 -1.2566352694317764e-01 0.0000000000000000e+00  4.1019026835475501e-02 5.4471295193773979e-02 0.0000000000000000e+00  -9.2423454665754676e-02 -8.5404639390801965e-02 0.0000000000000000e+00  -3.8755157839186469e-02 -6.9405915095588133e-02 0.0000000000000000e+00  -6.0874815211699775e-02 -6.0988956747275967e-02 0.0000000000000000e+00  8.0607555198256936e-02 8.8533934012856350e-02 0.0000000000000000e+00  4.7897004616999479e-02 -9.2742720497293568e-02 0.0000000000000000e+00  -1.0559546058492593e-01 -6.2807736287165392e-02 0.0000000000000000e+00  -2.6291076244922634e-02 1.2625211544003281e-01 0.0000000000000000e+00  7.8501031842697869e-02 -6.2543916684186643e-02 0.0000000000000000e+00  8.6235208374328368e-02 -9.2653700055623081e-02 0.0000000000000000e+00  -1.1955908588989178e-01 -3.1097572117359057e-02 0.0000000000000000e+00  2.5703742505206940e-02 -6.1379199940222139e-02 0.0000000000000000e+00  4.7150716728087362e-03 -3.3843378487535845e-02 0.0000000000000000e+00  -5.4145995558815593e-02 9.0062782789335077e-02 0.0000000000000000e+00  1.1902144408260835e-01 -4.3022343712920831e-02 0.0000000000000000e+00  9.8925408305428994e-02 -8.0410440384333481e-02 0.0000000000000000e+00  7.6364815210647821e-02 8.0654072358577078e-02 0.0000000000000000e+00  1.2873306019630323e-01 -3.0778408529266868e-03 0.0000000000000000e+00  -1.0678657320025650e-01 7.1932913381089151e-03 0.0000000000000000e+00  -5.6434037450423802e-02 -4.1792854834419510e-02 0.0000000000000000e+00  1.1933888215877621e-01 4.9362815905999557e-02 0.0000000000000000e+00  -9.4141994592276027e-02 -3.4553891702182239e-02 0.0000000000000000e+00  -6.4417281648601124e-02 -1.1067531314777684e-01 0.0000000000000000e+00  -6.7078192925561567e-02 -3.9968050067175416e-02 0.0000000000000000e+00  1.2547464788781565e-01 3.3952194179372362e-02 0.0000000000000000e+00  -4.9413171449190635e-03 -4.5728700502413282e-02 0.0000000000000000e+00  7.5941895571692966e-02 -4.2415118056981525e-02 0.0000000000000000e+00  -7.7915612849979249e-02 -6.6858519723803966e-02 0.0000000000000000e+00  8.6471164324535610e-02 9.8554760982391534e-02 0.0000000000000000e+00  7.4312193422697626e-02 4.1904426614130109e-02 0.0000000000000000e+00  -3.5622332016310310e-03 -5.2280760115641305e-02 0.0000000000000000e+00  -5.0871630132903983e-04 -5.9840617935898420e-02 0.00