<?xml version="1.0"?>
<VTKFile type="UnstructuredGrid"  version="0.1"  >
<UnstructuredGrid>
<Piece  NumberOfPoints="678" NumberOfCells="1275">
<Points>
<DataArray  type="Float64"  NumberOfComponents="3"  format="ascii">-0.9235495335996196 -0.1171245751031334 0  -0.9167811167856391 -0.2167102755860033 0  -0.8996127334886527 -0.3142913409394127 0  -0.8717877725285744 -0.4102045088861355 0  -0.8338318639129881 -0.5023416639713135 0  -0.7865410699743056 -0.589378054936485 0  -0.7303022887266245 -0.6707660370439874 0  -0.6653831691425673 -0.7460205850620408 0  -0.5927769058458182 -0.813779175701108 0  -0.5139376088060662 -0.8730681900142541 0  -0.4285715265302809 -0.9238124099970538 0  -0.3382578755625841 -0.9651121651473978 0  -0.244669408592993 -0.9962942619208774 0  -0.1480423671814657 -1.017308566644198 0  -0.04916673708016435 -1.027911557650391 0  0.04950932403397285 -1.028038687729792 0  0.1479074830648795 -1.01750557511748 0  0.2448196647673956 -0.9964032843108241 0  0.3390585352952232 -0.9649274501973938 0  0.4282754482305964 -0.9238931756764773 0  0.5137520684304118 -0.8731059103965967 0  0.5933348676206954 -0.813409862557619 0  0.6655379706672759 -0.7458503916884663 0  0.730169545251996 -0.6710226096694265 0  0.7866016333324537 -0.589486162305176 0  0.834272847964608 -0.5017310120140789 0  0.8719278874350445 -0.4101180150477581 0  0.8995433340251866 -0.3146360760206812 0  0.9168321826679396 -0.2159820386819258 0  0.9233739266717036 -0.1161985465194932 0  0.9193086105262458 -0.01649676100080217 0  0.904348884693308 0.08260295760821017 0  0.8788406055311735 0.179366755157207 0  0.8427740783926019 0.2731582631660012 0  0.7965692671123863 0.362854557920487 0  0.7407009888964546 0.4471331187385985 0  0.6762310812803081 0.5243765168009656 0  0.6033759545559673 0.5945427035916806 0  0.5230296665241813 0.6564174174955951 0  0.4367123486832286 0.7089095936246121 0  0.3453519283668836 0.7517292470744427 0  0.2494510883921192 0.7844481027871032 0  0.1508894524229932 0.8062568465907729 0  0.05069167826630482 0.8173163192429826 0  -0.05044177331546975 0.8172832740197057 0  -0.1513296901086414 0.8062365410083796 0  -0.2493239617781854 0.7844052537876169 0  -0.3455006970375308 0.7517013217175367 0  -0.4372529064158843 0.7087626718843616 0  -0.5233179564479374 0.6562410397825322 0  -0.6028564686175509 0.5948767361784102 0  -0.676176659372684 0.5242848444655254 0  -0.7406747005955848 0.4468932400023001 0  -0.7961457610054444 0.3634368525760008 0  -0.8425988345179761 0.2737418601424634 0  -0.8789921048136728 0.1791564648559212 0  -0.9045500855074006 0.08241866075861938 0  -0.9194535799747112 -0.01666323126083677 0  -1.82704710608047 0.1005786912963832 0  -1.827046122665037 -0.1005809438391553 0  -1.804829229871589 -0.3013596407331285 0  -1.760787482986871 -0.4978800154909191 0  -1.695320814348987 -0.6885840074707704 0  -1.609282547729344 -0.8708996108026236 0  -1.503711951154851 -1.042647786924221 0  -1.379866265625705 -1.201758459856175 0  -1.239439112509618 -1.346110878374758 0  -1.083671295443523 -1.4743832995336 0  -0.9148983578923069 -1.58464874827011 0  -0.7350170579416041 -1.675679534276832 0  -0.5460495030859801 -1.746439885508239 0  -0.3507960375606058 -1.795881364446223 0  -0.1512900723817343 -1.823549872587617 0  0.05041663772759697 -1.829093458670438 0  0.2513351344282524 -1.812452031352017 0  0.4493766001428582 -1.773775921989743 0  0.6415819451098959 -1.713658809356037 0  0.8262301336271148 -1.632668136942318 0  1.000818509010797 -1.531867663886433 0  1.163263048896191 -1.412472901879422 0  1.311585147230095 -1.275932876139107 0  1.444000985940889 -1.123883236720643 0  1.55875931264377 -0.9583835610571714 0  1.654885604341207 -0.7807557636772183 0  1.730676933738176 -0.5941425985096369 0  1.785486998811596 -0.4003281354418992 0  1.818684411211456 -0.2012905612762954 0  1.829812876169846 0.0002226385103900202 0  1.818731771914652 0.2010741875310065 0  1.78548719423772 0.4003258384485643 0  1.730677398591 0.5941409990999189 0  1.654887274401375 0.780756258000617 0  1.558839585408945 0.9582116910486932 0  1.443967181869059 1.123886750111499 0  1.311452054801739 1.276058184417067 0  1.163261380552264 1.41247016777509 0  1.000971086006029 1.531758979303516 0  0.8262112211611164 1.632636139107311 0  0.6414262561610276 1.713708725993814 0  0.4492181680183508 1.773825996735969 0  0.2513332304372238 1.812484412160792 0  0.05039622210760003 1.829129879450485 0  -0.150918935815282 1.823581607216203 0  -0.3509798987235026 1.795839172477215 0  -0.5462050928904191 1.746401521550781 0  -0.7350569302595765 1.675693384517402 0  -0.9147425100177548 1.584762032130871 0  -1.083666196073331 1.474380107435171 0  -1.23943911174935 1.346112606611768 0  -1.379880944529255 1.201739140554362 0  -1.503597149479673 1.042795350383808 0  -1.60936441622292 0.870729534836983 0  -1.695311395825915 0.6886040505184233 0  -1.760788254208886 0.4978765750484329 0  -1.80482803086626 0.3013613831731946 0  8.876832373650019e-05 -0.09833667179681033 0  -0.1831338540446352 1.315409218562678 0  0.3205318176920176 1.285583341993079 0  -0.7367346353347366 1.112351144806502 0  0.7765614166040689 1.08688692854284 0  -1.153926460857284 0.7046424872801987 0  1.165355511497066 0.6781145535937211 0  -1.340260932163693 0.2601023757853367 0  -0.04961013865490808 -0.5603099281344863 0  -0.4275789930107147 -0.2740940119372337 0  0.3699744659493313 -0.3755311392909899 0  -0.3198952538188443 0.2338208522057223 0  0.148847951763397 0.3375161489524724 0  1.34378355939121 0.2488764947686682 0  1.3700893517343 -0.233681425214544 0  -1.357202435571501 -0.3094028420928142 0  1.235459345451962 -0.6740168252908474 0  -1.193809775607253 -0.7453284086689209 0  -0.9178462864059345 -1.081692410570227 0  0.9600847944743153 -1.048807547731611 0  0.5725627334499753 -1.311376278258003 0  -0.500508652166893 -1.343289898148782 0  0.1425284862579969 -1.424813022091644 0  0.4851602781617428 0.03028911147336905 0  -0.5243851298588386 1.397303320145112 0  -0.1744206478851635 -1.349095148469146 0  -1.074738911397019 1.042821284820903 0  0.6308661240744017 1.377282633881515 0  1.151506419778014 0.9998167790245435 0  -1.511570525558695 -0.01788690203005659 0  0.1269532322714952 1.529968602395569 0  -0.3644225609468593 -0.5872626820805822 0  -0.60022771322395 -0.009054888400287916 0  -0.1318934408116851 0.4911419774367008 0  0.2566527253442165 -0.66331214395935 0  -0.4095803099033375 1.074625358900204 0  -1.214732020049214 -0.05304710399527715 0  -0.847353564316759 0.8061583158012332 0  1.434294105114602 0.5405347326873146 0  0.8655632916213845 0.7795411076239529 0  0.45165910108537 0.3279304436294954 0  -1.420570072613572 0.5573802647695614 0  1.533028567259376 0.01939405397027787 0  5.047358715849889e-05 1.09605597504261 0  0.5084784118911484 0.9852661309135052 0  0.6260423739014785 -0.2827428776316593 0  -1.096623139830975 0.4164721987211046 0  -0.3386989746228711 -0.02657497731803731 0  1.463464310470304 -0.5007032699123148 0  1.100695161533616 0.396809656101818 0  -1.431189764468829 -0.5833997642792956 0  -0.310200331623375 1.542350890110729 0  0.2673682976921392 -0.1252758895198561 0  0.2535318713326298 1.037579041853058 0  1.003635632697043 1.211710021531919 0  -0.8688195976535339 -1.333423394473137 0  0.4207082291870488 1.522037114692128 0  -0.872246823266308 1.332734160507757 0  -0.6062986746736039 0.8934091763925863 0  1.180984358875845 -0.05053749153942407 0  1.224280943180341 -0.9522286231425947 0  -0.5661545876512021 0.2735957104493239 0  -1.183343175125856 -1.015661649965869 0  -0.06112935028866323 -1.582938863114394 0  -0.6465311930217258 -1.1147859025494 0  1.137366378273953 -0.4303676418101511 0  0.9830722784883479 -0.7797519253210059 0  -1.139193808495157 -0.4793709363356061 0  0.8497115174892412 -1.301035382485366 0  -1.365795622781152 0.8373932705878876 0  0.255906596418212 0.118469432870221 0  1.342554801296924 0.8493533553953519 0  -1.561661180289653 0.3626684106654761 0  -0.2207786157520918 -0.3928861740402494 0  -0.07942715055421205 0.2590033803875244 0  0.3962321433252123 -1.512032002855959 0  -0.343361593258523 -1.542605322011037 0  1.58614285940893 0.2551299852478936 0  -0.1929344569470457 -0.7569161199554526 0  -0.5733641251823729 -0.4701662180502021 0  -0.6666972245319963 -0.2431603526444499 0  0.04833297724317263 -0.7832178721182567 0  -0.4068579109454564 0.4519868471648291 0  0.3041063619800258 0.5147220545412191 0  0.6931378689520268 -1.075173341920204 0  0.5242351579695209 -0.5552647641314737 0  0.002842645071568913 -0.3318873651568113 0  -1.124784048935505 0.1603622502414101 0  -0.9437496237490157 -0.8244665522907073 0  -0.9322371728029936 0.5842277697116143 0  1.125930690440324 0.1695667582193906 0  0.9616222422490268 0.574126723935059 0  0.3239652163066132 -1.244172315580944 0  1.58242364563026 -0.3094950273019934 0  0.09481906690254366 1.303757085341178 0  -1.582263061097056 -0.238734762627768 0  0.66285810686253 0.1529211775447079 0  0.6872021919527611 -0.06924078455082315 0  -0.09220366602889775 1.517084323354103 0  0.08075561897630615 0.5869892629390201 0  -1.134796900146668 -0.2599197025292937 0  -1.388266137504433 -0.8558939047967474 0  1.45002716628947 -0.7153659815538091 0  -0.3321278228146535 -1.19950385073845 0  0.1439629654360188 -0.4860219002720578 0  1.148255130166497 -1.146338436504637 0  0.8119197448122653 -0.8974634812109247 0  -0.7588143191510637 -0.9425505939373358 0  -1.091191902976008 -1.201422843667 0  0.6942437622911649 0.8945842864920843 0  -0.2012247336048583 1.015360106179533 0  0.6002318513389707 -1.515135800262715 0  0.485519933598872 -1.122181386127635 0  0.8512841736585582 1.371857526062246 0  0.513624612320178 1.198999515237342 0  -0.6896281052152629 -1.461123292582378 0  0.1407770643391373 -1.635956826439604 0  0.01608858415116088 -1.245105525052423 0  -0.9974169158708442 -0.6285263316275517 0  0.4619799373615099 -0.1670276842896011 0  -0.1841438783777497 0.09421589147253794 0  -0.194929672035617 -0.1813950970453041 0  1.0530
[...]
<PointData  Vectors="f_211-0"> 
<DataArray  type="Float64"  Name="f_211-0"  NumberOfComponents="3" format="ascii">-1.6376319720764618e-02 -9.8458625209284611e-02 0.0000000000000000e+00  -3.0175599671682695e-03 -9.8542844212045372e-02 0.0000000000000000e+00  9.3935946046308037e-03 -9.3222019833261144e-02 0.0000000000000000e+00  2.1352819883303488e-02 -8.8664388341254938e-02 0.0000000000000000e+00  3.1514506025124123e-02 -8.1258412708222386e-02 0.0000000000000000e+00  3.8481280285909303e-02 -7.0403977666675374e-02 0.0000000000000000e+00  4.2662244614688018e-02 -5.8538740059673786e-02 0.0000000000000000e+00  4.5604602821005293e-02 -4.7692576959526764e-02 0.0000000000000000e+00  4.5935569614247163e-02 -3.6792070938414717e-02 0.0000000000000000e+00  4.2014425553577081e-02 -2.5088507876668026e-02 0.0000000000000000e+00  3.8351320346914755e-02 -1.5883444382060487e-02 0.0000000000000000e+00  3.2951393160674615e-02 -8.0590855276897622e-03 0.0000000000000000e+00  2.3678794696411560e-02 -1.1143755198085540e-03 0.0000000000000000e+00  1.4261350054705064e-02 3.3875984129392127e-03 0.0000000000000000e+00  6.4116084050191537e-03 5.4797171514055039e-03 0.0000000000000000e+00  -4.7400910900372876e-03 5.4823966719957859e-03 0.0000000000000000e+00  -1.4500461029597071e-02 3.2593177698627103e-03 0.0000000000000000e+00  -2.2882229220291820e-02 -9.5891488637709135e-04 0.0000000000000000e+00  -2.9505896806984289e-02 -6.9185669008687183e-03 0.0000000000000000e+00  -3.8994173405932260e-02 -1.6363282995319969e-02 0.0000000000000000e+00  -4.2489174155298480e-02 -2.5315204171083395e-02 0.0000000000000000e+00  -4.3821149253185469e-02 -3.5084063769306756e-02 0.0000000000000000e+00  -4.4775689700850663e-02 -4.7005818035490164e-02 0.0000000000000000e+00  -4.3258606825829507e-02 -5.9255789576387649e-02 0.0000000000000000e+00  -3.8447902508660849e-02 -7.0433073325567544e-02 0.0000000000000000e+00  -3.0017538550760739e-02 -7.8489699840816093e-02 0.0000000000000000e+00  -2.1052042932149195e-02 -8.7929395732609064e-02 0.0000000000000000e+00  -9.7394289106348033e-03 -9.4242899309711747e-02 0.0000000000000000e+00  3.3280856594124805e-03 -9.5640332116135623e-02 0.0000000000000000e+00  1.6511289693843828e-02 -9.4773975003783331e-02 0.0000000000000000e+00  2.9753721919077339e-02 -9.2251615905816778e-02 0.0000000000000000e+00  4.2171302500246276e-02 -8.5448692653259092e-02 0.0000000000000000e+00  5.3351213726848999e-02 -7.6945685360075206e-02 0.0000000000000000e+00  6.2232612280016524e-02 -6.5211289606185580e-02 0.0000000000000000e+00  6.8032080384473489e-02 -5.0966722469963123e-02 0.0000000000000000e+00  7.0648974292097308e-02 -3.5366419139050830e-02 0.0000000000000000e+00  7.1327642409012598e-02 -2.1151995937803234e-02 0.0000000000000000e+00  6.8176258063216658e-02 -6.0845079955879891e-03 0.0000000000000000e+00  6.1653123963284838e-02 8.2743886727398488e-03 0.0000000000000000e+00  5.3757578742048263e-02 2.0199752126707313e-02 0.0000000000000000e+00  4.4257956929655118e-02 3.0051504328305337e-02 0.0000000000000000e+00  3.1886389788619379e-02 3.8171866709919039e-02 0.0000000000000000e+00  1.9536390282898445e-02 4.3310344466429868e-02 0.0000000000000000e+00  6.8027163053091281e-03 4.5890191875890017e-02 0.0000000000000000e+00  -6.8531797280279296e-03 4.5847975205750333e-02 0.0000000000000000e+00  -2.1553423639020030e-02 4.2919739810201439e-02 0.0000000000000000e+00  -3.1807572489324060e-02 3.8026809612490740e-02 0.0000000000000000e+00  -4.4877588100630222e-02 2.9660582571336688e-02 0.0000000000000000e+00  -5.5204994946070410e-02 1.9276016430772210e-02 0.0000000000000000e+00  -6.2747650154424364e-02 7.4225929034962253e-03 0.0000000000000000e+00  -6.6900738780950264e-02 -4.8813340502504550e-03 0.0000000000000000e+00  -7.1709386841749601e-02 -2.1200867029721571e-02 0.0000000000000000e+00  -7.1289858336601758e-02 -3.5416229431160066e-02 0.0000000000000000e+00  -6.7758634514459307e-02 -4.8423158658817987e-02 0.0000000000000000e+00  -6.1401967426819554e-02 -6.3990074855519163e-02 0.0000000000000000e+00  -5.2466334049818313e-02 -7.8188985494554233e-02 0.0000000000000000e+00  -4.1699006855416297e-02 -8.6002416228864481e-02 0.0000000000000000e+00  -2.9596304110454864e-02 -9.2804086089051677e-02 0.0000000000000000e+00  -9.9969249284427505e-02 4.3744264108088069e-03 0.0000000000000000e+00  -9.9963622856522272e-02 -4.3909199865810209e-03 0.0000000000000000e+00  -9.8549943272365881e-02 -1.7405799359874644e-02 0.0000000000000000e+00  -9.6364868524490971e-02 -2.7133717691933210e-02 0.0000000000000000e+00  -9.2749746339598912e-02 -3.7694932315986251e-02 0.0000000000000000e+00  -8.8045342413184458e-02 -4.7647253129430273e-02 0.0000000000000000e+00  -8.2282726687191957e-02 -5.7042234443240823e-02 0.0000000000000000e+00  -7.5409871927712840e-02 -6.5839440704170707e-02 0.0000000000000000e+00  -6.8484643258027250e-02 -7.2965890383021981e-02 0.0000000000000000e+00  -5.9212688621659335e-02 -8.0542562589320715e-02 0.0000000000000000e+00  -4.9986880924874258e-02 -8.6572294211849005e-02 0.0000000000000000e+00  -4.0137345687243725e-02 -9.1557276953758981e-02 0.0000000000000000e+00  -2.8958383812013017e-02 -9.5785714859531648e-02 0.0000000000000000e+00  -1.9187484603178803e-02 -9.8239630890313442e-02 0.0000000000000000e+00  -9.2139427438975522e-03 -9.9642561422897499e-02 0.0000000000000000e+00  2.7418995008595959e-03 -9.9893599465223124e-02 0.0000000000000000e+00  1.3763110660282228e-02 -9.9015734849417308e-02 0.0000000000000000e+00  2.5505125888941695e-02 -9.6759508799559246e-02 0.0000000000000000e+00  3.4983056296949144e-02 -9.3793490679348474e-02 0.0000000000000000e+00  4.5218393513610643e-02 -8.9322660181992045e-02 0.0000000000000000e+00  5.4751223655378142e-02 -8.3810464535476234e-02 0.0000000000000000e+00  6.3642357827553953e-02 -7.7283957821320276e-02 0.0000000000000000e+00  7.1752305979686945e-02 -6.9819459744101961e-02 0.0000000000000000e+00  7.9063834306636729e-02 -6.1399630156309691e-02 0.0000000000000000e+00  8.4756316757400307e-02 -5.3219005878560537e-02 0.0000000000000000e+00  9.0901242623568301e-02 -4.1855095880372742e-02 0.0000000000000000e+00  9.4674323953799405e-02 -3.2506255626854441e-02 0.0000000000000000e+00  9.7439339169568984e-02 -2.2820684838947496e-02 0.0000000000000000e+00  9.9336601851261599e-02 -1.0991003597007937e-02 0.0000000000000000e+00  1.0005549693882766e-01 1.1398694252851931e-03 0.0000000000000000e+00  9.9574721586218148e-02 9.8762582427476368e-03 0.0000000000000000e+00  9.7441211249225626e-02 2.2805244947257695e-02 0.0000000000000000e+00  9.4678769191599441e-02 3.2494287961388667e-02 0.0000000000000000e+00  9.0912794421614040e-02 4.1853949914790592e-02 0.0000000000000000e+00  8.5175499359251006e-02 5.2336859462360087e-02 0.0000000000000000e+00  7.8899444718971770e-02 6.1418768731741735e-02 0.0000000000000000e+00  7.1074030939761612e-02 7.0463871756850593e-02 0.0000000000000000e+00  6.3638227799323419e-02 7.7270164425306098e-02 0.0000000000000000e+00  5.5540694667603453e-02 8.3255112833547487e-02 0.0000000000000000e+00  4.5129332055523302e-02 8.9168004118206481e-02 0.0000000000000000e+00  3.4186598501765593e-02 9.4056120884573255e-02 0.0000000000000000e+00  2.4693606400225252e-02 9.7019264005858294e-02 0.0000000000000000e+00  1.3753169614857706e-02 9.9180976662155529e-02 0.0000000000000000e+00  2.6395654404920048e-03 1.0007821249999145e-01 0.0000000000000000e+00  -7.3093314420718102e-03 9.9810809554786703e-02 0.0000000000000000e+00  -2.0132870012419604e-02 9.8030551659525011e-02 0.0000000000000000e+00  -2.9762080220416345e-02 9.5590125577231122e-02 0.0000000000000000e+00  -4.0341920269625998e-02 9.1626449724304004e-02 0.0000000000000000e+00  -4.9188382634236034e-02 8.7152615519597007e-02 0.0000000000000000e+00  -5.9192188548046330e-02 8.0527773597688090e-02 0.0000000000000000e+00  -6.8490064325762184e-02 7.2973888651037322e-02 0.0000000000000000e+00  -7.5488604758754893e-02 6.5739869373261720e-02 0.0000000000000000e+00  -8.1698602213079743e-02 5.7798827888474583e-02 0.0000000000000000e+00  -8.8469831355706061e-02 4.6773374432947483e-02 0.0000000000000000e+00  -9.2704264789642429e-02 3.7793065969671434e-02 0.0000000000000000e+00  -9.6370451679175184e-02 2.7112925271364635e-02 0.0000000000000000e+00  -9.8544813201913412e-02 1.7411538579775513e-02 0.0000000000000000e+00  5.5738182573628005e-04 1.0160524088985901e-01 0.0000000000000000e+00  -1.5589409326485754e-02 6.6934575355193163e-02 0.0000000000000000e+00  2.6257651792731908e-02 6.3761350715669629e-02 0.0000000000000000e+00  -5.7509413137625351e-02 4.3350266014441724e-02 0.0000000000000000e+00  6.0168025737461849e-02 4.1828689791534659e-02 0.0000000000000000e+00  -7.7960280098150148e-02 4.1313004725480919e-03 0.0000000000000000e+00  7.7924270601396256e-02 1.1154550297747354e-03 0.0000000000000000e+00  -7.6125687375035916e-02 -3.1053040637647213e-02 0.0000000000000000e+00  3.4083345519441977e-03 7.1056641198157203e-02 0.0000000000000000e+00  8.9614395713669311e-03 4.7327547277283562e-02 0.0000000000000000e+00  -1.5053871385459442e-02 5.3082320488083375e-02 0.0000000000000000e+00  -2.7882540727946444e-02 6.8667190306854087e-02 0.0000000000000000e+00  1.5459701052100072e-02 8.3492834840721994e-02 0.0000000000000000e+00  7.5566933959761912e-02 -3.1259410742340434e-02 0.0000000000000000e+00  6.3452364396521049e-02 -5.8239340883489019e-02 0.0000000000000000e+00  -5.8725744595114024e-02 -6.2135560436978488e-02 0.0000000000000000e+00  4.1310184424463103e-02 -7.3920184550816254e-02 0.0000000000000000e+00  -3.6415729239542165e-02 -7.5366056891109062e-02 0.0000000000000000e+00  -1.6988303410786339e-02 -7.7115179226403444e-02 0.0000000000000000e+00  1.9613401884636363e-02 -7.7200392184039318e-02 0.0000000000000000e+00  5.5702107058533306e-03 -7.1886290157695820e-02 0.0000000000000000e+00  -3.8500083706670702e-03 -7.1633341338338291e-02 0.0000000000000000e+00  -1.7691060045576151e-05 -6.7663388136697658e-02 0.0000000000000000e+00  2.2433931604861505e-02 3.9740798793353183e-02 0.0000000000000000e+00  -3.9694800283054367e-02 7.6264855464637335e-02 0.0000000000000000e+00  1.3574481531798189e-03 -5.6156265210943350e-02 0.0000000000000000e+00  -7.5448022916470722e-02 4.4112349479456525e-02 0.0000000000000000e+00  4.6499355523044412e-02 7.4653733150362403e-02 0.0000000000000000e+00  7.9620880352542611e-02 4.1635544903462537e-02 0.0000000000000000e+00  -8.4912683187002985e-02 -3.2579225767601423e-02 0.0000000000000000e+00  9.2871039379570121e-03 8.8689445205915513e-02 0.0000000000000000e+00  2.7168342609087147e-02 3.5421175835242943e-02 0.0000000000000000e+00  -2.1421444999756064e-02 3.9566656226254545e-03 0.0000000000000000e+00  -1.6795271715307425e-02 7.1621667630182725e-02 0.0000000000000000e+00  -2.2403688398504203e-02 4.3234238758423138e-02 0.0000000000000000e+00  -3.6967478671551569e-02 4.1309949193948307e-02 0.0000000000000000e+00  -4.9440213559711947e-02 -6.9354994201027809e-02 0.0000000000000000e+00  -6.5564346491278014e-02 4.6094559863986964e-03 0.0000000000000000e+00  9.0797554949793843e-02 7.0277095328530326e-03 0.0000000000000000e+00  6.7168928750120385e-02 -5.7250556762747287e-04 0.0000000000000000e+00  4.5831817585224109e-02 3.7620330011442556e-02 0.0000000000000000e+00  -9.0493657836449665e-02 7.8846480521992026e-03 0.0000000000000000e+00  8.7391929828122217e-02 -2.7186754839036920e-02 0.0000000000000000e+00  3.6993529063463718e-04 4.7623353664119086e-02 0.0000000000000000e+00  4.6292261139177372e-02 2.9265961374844180e-02 0.0000000000000000e+00  -1.1458395234715344e-02 -9.7827406763535407e-03 0.0000000000000000e+00  -6.8043506464713951e-02 -3.9228559086293566e-02 0.0000000000000000e+00  -1.0503467965467526e-02 7.1975795451619709e-02 0.0000000000000000e+00  7.4186922685507695e-02 -5.6695918932510733e-02 0.0000000000000000e+00  6.6122038804873787e-02 -4.1365593548790033e-02 0.0000000000000000e+00  -7.0065318558797718e-02 -6.0742232068121842e-02 0.0000000000000000e+00  -2.2554114764442787e-02 8.9336841720276769e-02 0.0000000000000000e+00  3.4108981867567536e-03 8.2799833132258735e-02 0.0000000000000000e+00  2.4853594672762776e-02 3.9394975887797903e-02 0.0000000000000000e+00  6.9738713837456237e-02 6.1480370437155402e-02 0.0000000000000000e+00  -3.3492476585252930e-02 -8.5638867696667009e-02 0.0000000000000000e+00  3.0058221622527363e-02 8.7508360616930972e-02 0.0000000000000000e+00  -6.0651611308205559e-02 7.1520766195235980e-02 0.0000000000000000e+00  -5.4070275578483720e-02 1.4992408340404518e-02 0.0000000000000000e+00  4.3038840060335398e-02 -7.5145486627945138e-02 0.0000000000000000e+00  5.1674548477414740e-02 -7.6183277845464817e-02 0.0000000000000000e+00  -5.4715206397674361e-02 9.7719539265218227e-03 0.0000000000000000e+00  -4.9787937874042357e-02 -7.7605300636032909e-02 0.0000000000000000e+00  -2.0035555132199359e-03 -8.8483970556603314e-02 0.0000000000000000e+00  1.0826462828803418e-02 -5.9359851907795143e-02 0.0000000000000000e+00  1.7634423202294781e-02 -8.3456928643753522e-02 0.0000000000000000e+00  9.3302986987751023e-04 -7.6119906890207756e-02 0.0000000000000000e+00  -1.9645175666674151e-02 -8.2815334854243458e-02 0.0000000000000000e+00  2.8939800105539575e-02 -8.4193027632047571e-02 0.0000000000000000e+00  -8.8495991975386892e-02 3.4218146535732387e-02 0.0000000000000000e+00  1.6739658950710772e-02 8.3602743048267272e-02 0.0000000000000000e+00  8.7797012194042678e-02 3.3802548622651474e-02 0.0000000000000000e+00  -9.5328987734260351e-02 1.3555093581171791e-03 0.0000000000000000e+00  1.0098944322236616e-02 7.4804655531074640e-02 0.0000000000000000e+00  -7.1802211008566447e-03 9.2035070267147329e-02 0.0000000000000000e+00  1.1958741150852562e-02 -8.6081026635403249e-02 0.0000000000000000e+00  -1.1225780249686087e-02 -8.7647074418645068e-02 0.0000000000000000e+00  9.5186086686054522e-02 -5.0872698788145352e-03 0.0000000000000000e+00  1.9812869529664122e-02 3.6395999464221535e-02 0.0000000000000000e+00  3.0094605100789588e-02 -5.2516069958685107e-03 0.0000000000000000e+00  6.1899063013055120e-03 -2.3351398846570646e-02 0.0000000000000000e+00  -6.8283169320893936e-03 4.2222221598428686e-02 0.0000000000000000e+00  -4.8928149699589647e-02 3.8976708389277560e-02 0.0000000000000000e+00  3.7936502734717929e-02 5.2082973611858693e-02 0.0000000000000000e+00  -1.1709611774979633e-02 -6.2409375115689003e-02 0.0000000000000000e+00  -3.2929482099687907e-02 1.3241021069419399e-03 0.0000000000000000e+00  2.8041751615970638e-04 9.1731520006744685e-02 0.0000000000000000e+00  -5.0716158999097941e-02 -6.8070876316884701e-02 0.0000000000000000e+00  3.2116536173931610e-03 -7.5213671270381116e-02 0.0000000000000000e+00  -6.8573383547484046e-02 -2.8298425398916600e-02 0.0000000000000000e+00  5.2821606452846573e-02 -6.6264191542480394e-02 0.0000000000000000e+00  6.8109686584561138e-02 -2.6729765978238031e-02 0.0000000000000000e+00  -9.9795830235797564e-03 -4.6794117648138102e-02 0.0000000000000000e+00  8.8081545422976582e-02 -3.9090886385327421e-02 0.0000000000000000e+00  7.7853036391528100e-03 6.6189555476335926e-02 0.0000000000000000e+00  -8.8376286784719829e-02 -3.6747490081965199e-02 0.0000000000000000e+00  4.5370419999670272e-02 -1.8775959431262340e-02 0.0000000000000000e+00  1.6872932972629224e-02 -2.6818376076910292e-02 0.0000000000000000e+00  -7.1472120365825235e-03 8.7555455571845173e-02 0.0000000000000000e+00  8.5968647052472973e-03 6.6325876552667723e-02 0.0000000000000000e+00  -2.4065250679995636e-02 -8.4884015346185088e-02 0.0000000000000000e+00  -6.9704786506538968e-02 -6.6729638071584885e-02 0.0000000000000000e+00  7.4287486081174109e-02 -6.1392732448187368e-02 0.0000000000000000e+00  1.3963451425268373e-02 -3.8999668813303690e-02 0.0000000000000000e+00  -8.5994807233365309e-03 7.4088261903713315e-02 0.0000000000000000e+00  5.2022549146281828e-02 -7.9944388513743428e-02 0.0000000000000000e+00  -1.7684871108739977e-02 -6.5595877323135252e-02 0.0000000000000000e+00  1.9645652824134986e-02 -6.1495810410705135e-02 0.0000000000000000e+00  -4.8771678314474390e-02 -8.1906910195815821e-02 0.0000000000000000e+00  6.0346672393044649e-02 1.6565502541114857e-02 0.0000000000000000e+00  -2.0912698920017039e-02 3.8254309044401122e-02 0.0000000000000000e+00  2.3790001753474725e-02 -9.0491482211287264e-02 0.0000000000000000e+00  -2.1389337094700367e-02 -4.2263146246068466e-02 0.0000000000000000e+00  5.8281597405230097e-02 7.5159829899280550e-02 0.0000000000000000e+00  4.1805568967584465e-02 5.3603062628991574e-02 0.0000000000000000e+00  -2.6837258156775172e-02 -8.8915815887322433e-02 0.0000000000000000e+00  5.5090502078828938e-03 -9.3417007130111709e-02 0.0000000000000000e+00  -5.6578463282003319e-04 -3.1915426844810406e-02 0.0000000000000000e+00  7.2580014909140499e-03 -8.2696957334314661e-02 0.0000000000000000e+00  1.0497992932093692e-03 4.4129541311661795e-02 0.0000000000000000e+00  -1.0432484511199909e-02 9.1850968686013626e-02 0.0000000000000000e+00  7.2349481871152466e-04 8.9500014687399251e-02 0.0000000000000000e+00  4.2889932915901059e-03 -8.1977180089125121e-02 0.0000000000000000e+00  7.0875530037379592e-02 3.7219256412352644e-02 0.0000000000000000e+00  2.5654677748079214e-02 -8.9808047861735893e-02 0.0000000000000000e+00  -4.8574658725226766e-03 8.4075062784857019e-02 0.0000000000000000e+00  -9.6425218617789202e-02 -8.6856322678089092e-03 0.0000000000000000e+00  9.6396326949032440e-02 1.1841103974109209e-02 0.0000000000000000e+00  -8.5674148327366778e-02 -4.5052908502428386e-02 0.0000000000000000e+00  -2.8709738737785595e-02 4.2940171488144115e-02 0.0000000000000000e+00  8.0975786133199610e-04 1.0082828838525139e-01 0.0000000000000000e+00  -7.0244151365289012e-02 6.5810491460751824e-02 0.0000000000000000e+00  -4.9725834785466411e-02 8.3079756727939047e-02 0.0000000000000000e+00  -9.2715843433537976e-02 3.0185106068189492e-02 0.0000000000000000e+00  -8.3096143349374305e-02 5.0199333221735642e-02 0.0000000000000000e+00  9.4104186346147395e-02 -2.4434944103566818e-02 0.0000000000000000e+00  7.8615290221542983e-02 -1.2933857541999763e-02 0.0000000000000000e+00  7.4809026069293572e-02 1.4629506867688673e-02 0.0000000000000000e+00  -1.9305658269154549e-02 -8.9717559793336385e-02 0.0000000000000000e+00  -5.1937091151218660e-02 6.6160708387291059e-02 0.0000000000000000e+00  6.7535940798012298e-02 -4.6024332921833763e-02 0.0000000000000000e+00  -8.1530532477805950e-02 3.0174974387783465e-02 0.0000000000000000e+00  -4.6826698519088807e-02 4.9397457106329902e-02 0.0000000000000000e+00  -2.7798405745188059e-02 7.3030096909023220e-02 0.0000000000000000e+00  -3.8734730705955421e-02 8.9085768658215506e-02 0.0000000000000000e+00  -6.6935026466029904e-02 5.0311818595265380e-02 0.0000000000000000e+00  -7.3444744525705916e-02 1.2551486720042070e-02 0.0000000000000000e+00  -7.8791788496603080e-02 -1.9302197767624256e-02 0.0000000000000000e+00  -9.5864416048500628e-02 1.8741640823821848e-02 0.0000000000000000e+00  -1.1111404667901540e-02 -7.5968029543136265e-02 0.0000000000000000e+00  -3.1235112161525662e-03 9.7303854386581637e-02 0.0000000000000000e+00  -7.6736646164277431e-02 5.9648477096952743e-02 0.0000000000000000e+00  -1.0344134168106896e-02 -9.5590894756061598e-02 0.0000000000000000e+00  5.8315054776168756e-03 9.7087113531816330e-02 0.0000000000000000e+00  4.0536350754961543e-02 -7.6571559796540659e-03 0.0000000000000000e+00  3.5668044398074063e-02 1.5845759295538216e-02 0.0000000000000000e+00  -4.4334660291857717e-02 -3.2290494005655389e-02 0.0000000000000000e+00  -1.7512073440823547e-02 -5.3977346669618544e-02 0.0000000000000000e+00  -3.5269746014855746e-02 4.8581208596361232e-02 0.0000000000000000e+00  -8.0053357420914364e-02 -5.6236250531348161e-02 0.0000000000000000e+00  9.7524449523925111e-02 -7.2207589097199164e-03 0.0000000000000000e+00  3.9471237416498127e-02 8.8482664250057547e-02 0.0000000000000000e+00  1.8468251339513866e-02 9.4853208128075045e-02 0.0000000000000000e+00  3.8180065760511660e-02 -8.3016892721013952e-02 0.0000000000000000e+00  1.3389991240244504e-02 -9.5262740010920083e-02 0.0000000000000000e+00