<?xml version="1.0"?>
<VTKFile type="UnstructuredGrid"  version="0.1"  >
<UnstructuredGrid>
<Piece  NumberOfPoints="678" NumberOfCells="1275">
<Points>
<DataArray  type="Float64"  NumberOfComponents="3"  format="ascii">-0.9259185207869065 -0.1330817177461566 0  -0.9169509746680287 -0.2326824662121668 0  -0.8977037403214696 -0.3294601214670945 0  -0.867884805586579 -0.424606332998787 0  -0.8282510443745568 -0.5154986773753973 0  -0.7798024550624808 -0.6007303755805102 0  -0.722858547369148 -0.6801355885065379 0  -0.6574669447152394 -0.7535308166694337 0  -0.5848369386066615 -0.8194185979384545 0  -0.5066401875776186 -0.8767354604584655 0  -0.421921459476988 -0.9258726592867561 0  -0.3325712189089298 -0.9657933499257398 0  -0.2405681829881426 -0.9957847346051787 0  -0.1455715497561566 -1.016028575593282 0  -0.04811441438426042 -1.026269772399465 0  0.04866374357785557 -1.02639814397118 0  0.1453700284674133 -1.016247023240323 0  0.2408198371114354 -0.9958656726765082 0  0.3338530020467714 -0.9654261843501389 0  0.421520307126394 -0.9260513445702246 0  0.5063864392243209 -0.8768356207956982 0  0.5856914737225751 -0.8188204225537143 0  0.6577223366927771 -0.7532857440509341 0  0.7226033408946376 -0.6805306824846055 0  0.7798475911822467 -0.6008609325168863 0  0.8289054397268436 -0.5144820957810579 0  0.8680506463999322 -0.4243952094118714 0  0.8976144556742214 -0.3299876920422856 0  0.9171479250588362 -0.231578156196299 0  0.9258604684175631 -0.1316122367803369 0  0.9239451897405992 -0.03145845953040825 0  0.9110019698872669 0.06874611945433394 0  0.8873028692982801 0.1669123709988197 0  0.852689144033227 0.2626094073899545 0  0.8074486401794546 0.3545939563557226 0  0.7520264361811384 0.4413562532206232 0  0.6877562416063623 0.5209220672561483 0  0.6144121662313112 0.5935756605194843 0  0.5330541414110489 0.6577470863109062 0  0.4454694006530511 0.7121768430162428 0  0.3525397410142577 0.7566033408141056 0  0.2546413996216249 0.790617665444534 0  0.1540957054931496 0.8133285731198182 0  0.05176088993770585 0.8248933883420612 0  -0.05160478319985028 0.8248157795047592 0  -0.1548437623853468 0.8132652364128243 0  -0.2545696684042253 0.7906014307804072 0  -0.3528251170330728 0.7565286907093448 0  -0.446219553923258 0.7118944431394567 0  -0.5335103135115332 0.657416231815744 0  -0.6137338076384179 0.5940055716653605 0  -0.6877321802207281 0.520799716618297 0  -0.7521053081177431 0.4410776374542253 0  -0.8069514197174824 0.3554566594156677 0  -0.8524227589301431 0.2633529529326664 0  -0.8874067677931553 0.166542004925249 0  -0.911156931865965 0.06847719677927529 0  -0.9240214717404978 -0.03173689136452565 0  -1.842102517231756 0.1012364315412032 0  -1.842100651098008 -0.101241373910164 0  -1.819670663795203 -0.3039818824735594 0  -1.775299914545951 -0.5019663599991917 0  -1.709288823841991 -0.6942608650110721 0  -1.62254207941907 -0.8780752804182884 0  -1.516103610688424 -1.051238361826693 0  -1.391222854040825 -1.211673885527635 0  -1.249753534287354 -1.357098936145948 0  -1.092588733453018 -1.486513186983295 0  -0.9224264669221258 -1.597686648044847 0  -0.741061711082955 -1.689468221146996 0  -0.5504096728710159 -1.760865489586739 0  -0.3536856261870776 -1.810676120535841 0  -0.1526786504758735 -1.838555925891836 0  0.05082947731809548 -1.844137604377776 0  0.2534079335343796 -1.827363911014032 0  0.4532185291404958 -1.788347652790933 0  0.6468502776828523 -1.727784032667814 0  0.8330399158158192 -1.646120084104912 0  1.009063971528091 -1.54448947376828 0  1.172847479956968 -1.424111851937605 0  1.322390984917925 -1.286447635584766 0  1.4559079052846 -1.133129991759344 0  1.571523091081537 -0.9663991261437433 0  1.668575658757367 -0.787058361646092 0  1.744934754445657 -0.5990380522944451 0  1.8001611186663 -0.4037659418761633 0  1.83364466063618 -0.2029459693283894 0  1.844881204099152 0.0003952820449371961 0  1.833727822178271 0.2025605017390163 0  1.800161647086944 0.403761205692563 0  1.744935990840886 0.5990345346029751 0  1.668579206852431 0.787058569150566 0  1.57166725247755 0.9660936393204754 0  1.455849622231408 1.1331365283592 0  1.322155238566387 1.286670723911395 0  1.172845297239335 1.424107030552193 0  1.009336428626114 1.544296702968004 0  0.8330078362411273 1.646065103836017 0  0.6465739020831585 1.727873991843859 0  0.4529370993755024 1.788437085501152 0  0.253404469528816 1.827421087057325 0  0.05079368730724112 1.844201670685882 0  -0.1520188179540761 1.838613278628304 0  -0.3540128083722155 1.810602491236786 0  -0.550687283995837 1.760797397187723 0  -0.741132447771564 1.689492324963751 0  -0.922149540284332 1.59788774205681 0  -1.092580724316778 1.486507806280701 0  -1.249754533374432 1.357101829834171 0  -1.391249538492713 1.211639505126323 0  -1.515900476439385 1.051500637595577 0  -1.622688469016453 0.877772799231415 0  -1.709272642589369 0.6942956123874782 0  -1.775301608054435 0.5019597007958695 0  -1.819668750804813 0.3039844131132887 0  0.0001771114496275754 -0.08117106508931089 0  -0.1855706938681781 1.325582330366643 0  0.3246289167517438 1.295242823017811 0  -0.7457033532807601 1.118787373838282 0  0.7859193952371303 1.09308613337738 0  -1.165969513460922 0.7048772000051242 0  1.177411768851659 0.6778926160199875 0  -1.351885512460727 0.2548341744149678 0  -0.04906463310179227 -0.5477675538007619 0  -0.4262517097546505 -0.2658234504154313 0  0.3675846965151343 -0.3662340615550105 0  -0.3244608827191256 0.2452486736837233 0  0.1514241102498494 0.3513446458953 0  1.355295164122316 0.2435739550056199 0  1.379525112544166 -0.2430706638033922 0  -1.365876968079735 -0.3193766967843506 0  1.241361695261465 -0.6856526661328914 0  -1.198956754099858 -0.7571546819257583 0  -0.920002278218809 -1.093587811418808 0  0.9626411315354739 -1.06074749909176 0  0.5730433299715603 -1.322260952538894 0  -0.5007757824445066 -1.354088192183387 0  0.1424195276059625 -1.434883011064923 0  0.4889841388273929 0.03693208826730002 0  -0.5304966579201886 1.408787304641288 0  -0.1740590697535877 -1.357382221937723 0  -1.086320345786811 1.049294485675538 0  0.6380014852923424 1.388502160418512 0  1.163695040375916 1.005916036353266 0  -1.524356780159015 -0.023237458137692 0  0.1283816009436577 1.543355029395806 0  -0.35990371192885 -0.5807787984640632 0  -0.6038790024389522 -0.008200789857208809 0  -0.1345824145729173 0.5030426298038552 0  0.2528801588214754 -0.6554234229341565 0  -0.4154681814808239 1.08095369677952 0  -1.222143040479491 -0.06438374866303218 0  -0.8577336096757205 0.8065768235460979 0  1.448118861128517 0.5412661953830047 0  0.87618844082505 0.7791526726019787 0  0.4591716056173121 0.3341258487469783 0  -1.434352608124164 0.5582503112582702 0  1.546195884119767 0.01489612254492571 0  0.0001072459541665982 1.103495284780465 0  0.5158571007534708 0.9896998007244234 0  0.6241653895940296 -0.2841216074408037 0  -1.107259425187838 0.4099028744069925 0  -0.3405618447151741 -0.01441377202451363 0  1.474506292565478 -0.5095990744473861 0  1.11101669933742 0.3898926100553963 0  -1.441586445441476 -0.5928890404177092 0  -0.3136522823164158 1.555820941728765 0  0.268070497000004 -0.1112624118712175 0  0.2575185162828366 1.043712436242792 0  1.014286354861987 1.220880062493711 0  -0.8736573707581488 -1.346441264650712 0  0.4253048228538954 1.535219039018329 0  -0.8815130405657529 1.343445365518793 0  -0.6149750802155208 0.8956018956084056 0  1.187448872751314 -0.06281083887950586 0  1.231848543327148 -0.9639663038741443 0  -0.5749649724681085 0.2752469148861309 0  -1.190628234682732 -1.027586897336391 0  -0.06140914428703782 -1.596227689028478 0  -0.6443047000233166 -1.123866705968698 0  1.139590022014315 -0.4438615924571439 0  0.9825967166756506 -0.7918210380986314 0  -1.141708613285724 -0.4926764414301839 0  0.8538198428930128 -1.313857842701778 0  -1.37925764825385 0.8423564918253336 0  0.2587336681176867 0.1323856846271891 0  1.355927416115917 0.8542501513197736 0  -1.576096939774149 0.3625924295472281 0  -0.2192129555241517 -0.3798829613423442 0  -0.08058706325039378 0.2743209811691032 0  0.3978759591551045 -1.524994430604256 0  -0.3449315856347632 -1.55579715157575 0  1.600530145114649 0.2540718828905421 0  -0.1896054138867612 -0.7500978858869694 0  -0.568340202803007 -0.4706055288838366 0  -0.6657264957510743 -0.24676141064368 0  0.04717837487804537 -0.7754149457715469 0  -0.4147938825024596 0.4584493816680941 0  0.3103927579760461 0.5232787609016134 0  0.6907436345437893 -1.084793395469382 0  0.5186295580917577 -0.554609266914699 0  0.002876714896393536 -0.3161050924182787 0  -1.132648773516045 0.1491776791475461 0  -0.9426296329513326 -0.8363535490468099 0  -0.9430786475877715 0.5794096192196486 0  1.134082649635509 0.1586967607039229 0  0.9724084067849882 0.569576449997074 0  0.3220778255570435 -1.251044124603967 0  1.595631494818706 -0.3156649486281899 0  0.0960419299124501 1.31382829177824 0  -1.595521976071698 -0.2445818546498652 0  0.6702321815807555 0.1498980114127471 0  0.6900348266904942 -0.07353272455448105 0  -0.09329964963337006 1.530307391776909 0  0.08227090033782365 0.597995838821868 0  -1.13811455446477 -0.2737539682253319 0  -1.398637202842248 -0.8661427827112912 0  1.461092176809936 -0.7248483653906747 0  -0.3295941027853333 -1.205149584837761 0  0.1425630291824352 -0.4730546131112689 0  1.155923332320218 -1.158542599557094 0  0.8084792098803573 -0.9078141022815196 0  -0.7550704788424702 -0.9521768996440918 0  -1.098369266055247 -1.213907151436791 0  0.703824830279923 0.8969656967866629 0  -0.2046177863451151 1.021385619794904 0  0.6036640504393082 -1.528807532206901 0  0.4816460608653418 -1.128471099714344 0  0.8601664073050084 1.383131907612255 0  0.5201533534535078 1.207079253486498 0  -0.6935011505234396 -1.474577243643037 0  0.1415681582928677 -1.650008355833038 0  0.01597267485050603 -1.249544736744769 0  -0.9956647838706354 -0.6417910389961172 0  0.4623626353024183 -0.159440886861911 0  -0.185907986313628 0.1095870936578648 0  -0.1949197927973633 -0.1661541434798957 0  1.05313
[...]
<PointData  Vectors="f_277-0"> 
<DataArray  type="Float64"  Name="f_277-0"  NumberOfComponents="3" format="ascii">-1.4851178478602669e-02 -1.1899175471826234e-01 0.0000000000000000e+00  2.1040446820939787e-03 -1.1942740445865416e-01 0.0000000000000000e+00  1.8248342115892140e-02 -1.1429998015851672e-01 0.0000000000000000e+00  3.3797131930358722e-02 -1.0849238184795819e-01 0.0000000000000000e+00  4.6979677117861045e-02 -9.8696563274498786e-02 0.0000000000000000e+00  5.6122937531674272e-02 -8.4543667979811152e-02 0.0000000000000000e+00  6.1714952895504556e-02 -6.8910145608773857e-02 0.0000000000000000e+00  6.5196089089500670e-02 -5.3779475323244626e-02 0.0000000000000000e+00  6.5014344920800646e-02 -3.8522655291831250e-02 0.0000000000000000e+00  6.0023635196755597e-02 -2.2885067443658667e-02 0.0000000000000000e+00  5.4450761273485623e-02 -9.7914154956525497e-03 0.0000000000000000e+00  4.6219967655238788e-02 1.4907811478473549e-03 0.0000000000000000e+00  3.3506868420343790e-02 1.1174103694376184e-02 0.0000000000000000e+00  2.0227310420388729e-02 1.7556524206924808e-02 0.0000000000000000e+00  8.0248833773114130e-03 2.0611054895209521e-02 0.0000000000000000e+00  -7.1826641312483551e-03 2.0584162358998199e-02 0.0000000000000000e+00  -2.1073014573197265e-02 1.7391681837786468e-02 0.0000000000000000e+00  -3.3069782408409416e-02 1.1298995789333435e-02 0.0000000000000000e+00  -4.3384667417852296e-02 2.4325980769907482e-03 0.0000000000000000e+00  -5.5483888202500699e-02 -1.0473678529490464e-02 0.0000000000000000e+00  -6.0799184954140023e-02 -2.3292809651684131e-02 0.0000000000000000e+00  -6.3314554419997671e-02 -3.7369912096172610e-02 0.0000000000000000e+00  -6.4755445318958244e-02 -5.3728977160891096e-02 0.0000000000000000e+00  -6.2912852359520197e-02 -7.0356439242914529e-02 0.0000000000000000e+00  -5.6398494225519902e-02 -8.5067008377574277e-02 0.0000000000000000e+00  -4.5345944125244238e-02 -9.6318249893808286e-02 0.0000000000000000e+00  -3.3043640586966988e-02 -1.0777115648698131e-01 0.0000000000000000e+00  -1.8029796145286384e-02 -1.1578864621873879e-01 0.0000000000000000e+00  -9.5926054207819513e-04 -1.1731292029566230e-01 0.0000000000000000e+00  1.5800530119700004e-02 -1.1539218041930675e-01 0.0000000000000000e+00  3.2196402602222937e-02 -1.1145410230669810e-01 0.0000000000000000e+00  4.7439794627150145e-02 -1.0300537398899301e-01 0.0000000000000000e+00  6.0950180558511174e-02 -9.2171180169106276e-02 0.0000000000000000e+00  7.1941874389320898e-02 -7.7927392939492482e-02 0.0000000000000000e+00  7.9527933958669486e-02 -6.1161994685287692e-02 0.0000000000000000e+00  8.3470698306189264e-02 -4.2930823082173566e-02 0.0000000000000000e+00  8.4801337225520537e-02 -2.5976189872411511e-02 0.0000000000000000e+00  8.1524370620713382e-02 -7.6684807326595234e-03 0.0000000000000000e+00  7.4701814843148071e-02 9.5535483119828721e-03 0.0000000000000000e+00  6.5390767526236154e-02 2.4246735272812188e-02 0.0000000000000000e+00  5.3544617589456667e-02 3.6591866753513044e-02 0.0000000000000000e+00  3.8901600086798389e-02 4.6504230492700888e-02 0.0000000000000000e+00  2.4166735408518828e-02 5.3136614603758951e-02 0.0000000000000000e+00  7.5519830038119767e-03 5.6816607595679282e-02 0.0000000000000000e+00  -9.1570873732186690e-03 5.6628683248580759e-02 0.0000000000000000e+00  -2.6351041028546178e-02 5.2908971651196658e-02 0.0000000000000000e+00  -3.9919811629647653e-02 4.6391212702419901e-02 0.0000000000000000e+00  -5.4985071998616637e-02 3.6077898317299247e-02 0.0000000000000000e+00  -6.6833323500486666e-02 2.3348775484396934e-02 0.0000000000000000e+00  -7.5890761861357695e-02 8.4853871915678124e-03 0.0000000000000000e+00  -8.1023761849985998e-02 -7.1711627494225987e-03 0.0000000000000000e+00  -8.5042757200385441e-02 -2.6222154180394128e-02 0.0000000000000000e+00  -8.3703653123539182e-02 -4.3670649755921567e-02 0.0000000000000000e+00  -7.8826003376993484e-02 -6.0143588922366306e-02 0.0000000000000000e+00  -7.1406571755777734e-02 -7.7285051293191034e-02 0.0000000000000000e+00  -6.0828827884332526e-02 -9.3316522271511618e-02 0.0000000000000000e+00  -4.7112204424850812e-02 -1.0362451954950548e-01 0.0000000000000000e+00  -3.1657646940054282e-02 -1.1236168144870685e-01 0.0000000000000000e+00  -1.0117287956325244e-01 4.4061699279452707e-03 0.0000000000000000e+00  -1.0116650887041086e-01 -4.4267133700956326e-03 0.0000000000000000e+00  -9.9731936189996886e-02 -1.7633703909032249e-02 0.0000000000000000e+00  -9.7522048644838433e-02 -2.7460163817298759e-02 0.0000000000000000e+00  -9.3863813274492947e-02 -3.8148310554268386e-02 0.0000000000000000e+00  -8.9102986877131599e-02 -4.8220272625933390e-02 0.0000000000000000e+00  -8.3270649165860702e-02 -5.7728794339313674e-02 0.0000000000000000e+00  -7.6314795515331810e-02 -6.6631726585104536e-02 0.0000000000000000e+00  -6.9321758301157207e-02 -7.3831780444747391e-02 0.0000000000000000e+00  -5.9925602748605554e-02 -8.1515438411527821e-02 0.0000000000000000e+00  -5.0590355710032911e-02 -8.7616489655653773e-02 0.0000000000000000e+00  -4.0619978659772453e-02 -9.2662507280271339e-02 0.0000000000000000e+00  -2.9287720206505167e-02 -9.6944214797502357e-02 0.0000000000000000e+00  -1.9417583540379445e-02 -9.9419540410417770e-02 0.0000000000000000e+00  -9.3441241487615158e-03 -1.0083969047140975e-01 0.0000000000000000e+00  2.7731227188231640e-03 -1.0109948033209995e-01 0.0000000000000000e+00  1.3930296515537635e-02 -1.0020985468933059e-01 0.0000000000000000e+00  2.5829432233828730e-02 -9.7919195208807680e-02 0.0000000000000000e+00  3.5401985036839487e-02 -9.4920903238129073e-02 0.0000000000000000e+00  4.5760627963083625e-02 -9.0396812506110383e-02 0.0000000000000000e+00  5.5408910499261249e-02 -8.4818179161220600e-02 0.0000000000000000e+00  6.4406294940333245e-02 -7.8213705503303296e-02 0.0000000000000000e+00  7.2614788944974917e-02 -7.0658555410623269e-02 0.0000000000000000e+00  8.0013556620343429e-02 -6.2137796107923859e-02 0.0000000000000000e+00  8.5765857801687315e-02 -5.3874965723923918e-02 0.0000000000000000e+00  9.2001747186571448e-02 -4.2342867850603948e-02 0.0000000000000000e+00  9.5810898915707821e-02 -3.2897396277691782e-02 0.0000000000000000e+00  9.8606814313064547e-02 -2.3115348257436028e-02 0.0000000000000000e+00  1.0053489972286014e-01 -1.1126341496985338e-02 0.0000000000000000e+00  1.0125871099376173e-01 1.1733180118439967e-03 0.0000000000000000e+00  1.0077471877361062e-01 9.9741243296247867e-03 0.0000000000000000e+00  9.8609735421018044e-02 2.3097757465711605e-02 0.0000000000000000e+00  9.5817366092028691e-02 3.2883267323402292e-02 0.0000000000000000e+00  9.2016032704477654e-02 4.2339685246180300e-02 0.0000000000000000e+00  8.6205090303327278e-02 5.2967035709049780e-02 0.0000000000000000e+00  7.9852487886249351e-02 6.2160064868995266e-02 0.0000000000000000e+00  7.1917847491059436e-02 7.1325455995806891e-02 0.0000000000000000e+00  6.4403919774032370e-02 7.8199501847733416e-02 0.0000000000000000e+00  5.6227309706329290e-02 8.4246968911875872e-02 0.0000000000000000e+00  4.5675089941865060e-02 9.0246244182254298e-02 0.0000000000000000e+00  3.4580760078152292e-02 9.5196220947909291e-02 0.0000000000000000e+00  2.4992167227123385e-02 9.8186465264737496e-02 0.0000000000000000e+00  1.3918870523132790e-02 1.0037480454624494e-01 0.0000000000000000e+00  2.6702738393858550e-03 1.0128267487156090e-01 0.0000000000000000e+00  -7.3791309665125785e-03 1.0101507540887635e-01 0.0000000000000000e+00  -2.0393158659289985e-02 9.9208463316132339e-02 0.0000000000000000e+00  -3.0120629065435087e-02 9.6740395126855588e-02 0.0000000000000000e+00  -4.0827743536357500e-02 9.2728966026815879e-02 0.0000000000000000e+00  -4.9765357615295630e-02 8.8211912721552849e-02 0.0000000000000000e+00  -5.9908091129620721e-02 8.1501136815773881e-02 0.0000000000000000e+00  -6.9330576559885046e-02 7.3839101126102855e-02 0.0000000000000000e+00  -7.6397128115297017e-02 6.6529775692156387e-02 0.0000000000000000e+00  -8.2671932433172474e-02 5.8510122141097159e-02 0.0000000000000000e+00  -8.9544282964279368e-02 4.7320052192397960e-02 0.0000000000000000e+00  -9.3819383636593340e-02 3.8246354107932715e-02 0.0000000000000000e+00  -9.7529213910103427e-02 2.7437655869309671e-02 0.0000000000000000e+00  -9.9727877970502601e-02 1.7638266367361193e-02 0.0000000000000000e+00  6.2156777973541952e-04 1.3491710415117603e-01 0.0000000000000000e+00  -1.7267746163906011e-02 6.9283807397962249e-02 0.0000000000000000e+00  2.9014106071948289e-02 6.5595446886184877e-02 0.0000000000000000e+00  -6.3550099559845558e-02 4.2379023656565824e-02 0.0000000000000000e+00  6.6063417769636493e-02 4.0552037928232552e-02 0.0000000000000000e+00  -8.4233753212500109e-02 -2.6072201056503434e-03 0.0000000000000000e+00  8.4542636234419613e-02 -5.6301308692796653e-03 0.0000000000000000e+00  -7.9645819915823965e-02 -4.1819313912603719e-02 0.0000000000000000e+00  3.9720282952123587e-03 1.0542551459738120e-01 0.0000000000000000e+00  7.2051440569323652e-03 6.8376397770479325e-02 0.0000000000000000e+00  -1.6037700024152456e-02 7.7296489309487362e-02 0.0000000000000000e+00  -3.4930033083478154e-02 8.7531366830389187e-02 0.0000000000000000e+00  2.0108097583766645e-02 1.0509691136441385e-01 0.0000000000000000e+00  7.8664822072774296e-02 -4.2199217242957089e-02 0.0000000000000000e+00  6.1698567349018810e-02 -6.9413842415341862e-02 0.0000000000000000e+00  -5.6291960842417534e-02 -7.3386114081208653e-02 0.0000000000000000e+00  3.6398995151759352e-02 -8.3260119101193700e-02 0.0000000000000000e+00  -3.1057195824485209e-02 -8.4355317271087721e-02 0.0000000000000000e+00  -1.0314263735190657e-02 -8.2869783588653281e-02 0.0000000000000000e+00  1.3051099846551324e-02 -8.3547550633728512e-02 0.0000000000000000e+00  -4.9463944044372745e-04 -7.3733462375840858e-02 0.0000000000000000e+00  1.4789975447448498e-03 -7.2689455446493939e-02 0.0000000000000000e+00  -1.8642358224418845e-03 -6.6411941636216609e-02 0.0000000000000000e+00  3.1509303401423473e-02 5.1407095548622460e-02 0.0000000000000000e+00  -4.2438100515995551e-02 7.7189326140501821e-02 0.0000000000000000e+00  4.1360089132211576e-03 -5.3815231630237610e-02 0.0000000000000000e+00  -8.0262530162428847e-02 4.1679678526558281e-02 0.0000000000000000e+00  4.9404895760707952e-02 7.5175177855069289e-02 0.0000000000000000e+00  8.4070688308062469e-02 3.9133927282265411e-02 0.0000000000000000e+00  -8.5777157739857765e-02 -4.0689456521503499e-02 0.0000000000000000e+00  9.8869375535728821e-03 9.0277553467789207e-02 0.0000000000000000e+00  3.4626630512685448e-02 5.7208146444890078e-02 0.0000000000000000e+00  -2.9627629598228750e-02 8.7162784472394651e-03 0.0000000000000000e+00  -1.9729947675839719e-02 9.0863520781156504e-02 0.0000000000000000e+00  -2.9481595213950877e-02 6.9108992804553307e-02 0.0000000000000000e+00  -4.2834575909679817e-02 4.3685084930420913e-02 0.0000000000000000e+00  -4.8972880132510159e-02 -8.5453157114757247e-02 0.0000000000000000e+00  -7.5078676381441264e-02 7.5355850464426516e-05 0.0000000000000000e+00  9.4630986831136812e-02 1.2476522081077762e-03 0.0000000000000000e+00  7.6608093083501153e-02 -5.7526551310676287e-03 0.0000000000000000e+00  5.6868561497808938e-02 4.6032707819198777e-02 0.0000000000000000e+00  -9.4320396276760074e-02 2.2770643233000448e-03 0.0000000000000000e+00  8.8393181076708113e-02 -3.4649313890799498e-02 0.0000000000000000e+00  4.2001771267376962e-04 5.2536536112451362e-02 0.0000000000000000e+00  5.3955108862863838e-02 3.0140156153788324e-02 0.0000000000000000e+00  -1.2649542674345149e-02 -7.6611943921916573e-03 0.0000000000000000e+00  -7.5405833754310189e-02 -5.1185991349244363e-02 0.0000000000000000e+00  -1.6557059719863994e-02 9.5352947694997872e-02 0.0000000000000000e+00  7.2841942551316402e-02 -6.3243576517652486e-02 0.0000000000000000e+00  7.3197842037266592e-02 -5.3638299793589132e-02 0.0000000000000000e+00  -6.8236933347117737e-02 -6.7143612751719373e-02 0.0000000000000000e+00  -2.3752016187117888e-02 9.0688536016200624e-02 0.0000000000000000e+00  7.7776597113410513e-03 1.1042046325438233e-01 0.0000000000000000e+00  2.9231507177630518e-02 4.3547075796433091e-02 0.0000000000000000e+00  7.3193570100319905e-02 6.0648054189000759e-02 0.0000000000000000e+00  -3.0466970981394066e-02 -8.8712804161897571e-02 0.0000000000000000e+00  3.1626322689945523e-02 8.8648358775651789e-02 0.0000000000000000e+00  -6.3690294664045036e-02 7.1375499914368382e-02 0.0000000000000000e+00  -6.3844217929791294e-02 1.4250353978028452e-02 0.0000000000000000e+00  4.2542675759638285e-02 -9.2626078738281811e-02 0.0000000000000000e+00  4.8786993946339077e-02 -8.1494967612028527e-02 0.0000000000000000e+00  -6.5476239754677659e-02 1.2946081771438533e-02 0.0000000000000000e+00  -4.6876703469866082e-02 -8.2484053962637541e-02 0.0000000000000000e+00  -1.6557780561112477e-03 -8.8931419086396762e-02 0.0000000000000000e+00  2.1446509057695268e-02 -6.2492189831214115e-02 0.0000000000000000e+00  1.0239075571446900e-02 -1.0026981315720501e-01 0.0000000000000000e+00  -9.8351291835984764e-03 -8.7692325310378655e-02 0.0000000000000000e+00  -1.1852046882775096e-02 -9.8207344850721218e-02 0.0000000000000000e+00  2.5075675109857389e-02 -8.7621922668930624e-02 0.0000000000000000e+00  -9.2004266029192483e-02 3.1202843537290470e-02 0.0000000000000000e+00  2.2808962563287998e-02 1.0665143346238765e-01 0.0000000000000000e+00  9.1555359233514627e-02 3.0773802224764783e-02 0.0000000000000000e+00  -9.7858711785484970e-02 -3.6525872654675734e-03 0.0000000000000000e+00  1.0242712217455114e-02 1.0687110167053425e-01 0.0000000000000000e+00  -8.7303027425095422e-03 1.1729420681809274e-01 0.0000000000000000e+00  9.4573835004055137e-03 -8.7127267915313111e-02 0.0000000000000000e+00  -9.3061760040125691e-03 -8.8593902084646486e-02 0.0000000000000000e+00  9.7245039849995066e-02 -1.0440491426626050e-02 0.0000000000000000e+00  2.5693459774453885e-02 6.1348088507522117e-02 0.0000000000000000e+00  3.8378006412681603e-02 1.7404704616494199e-03 0.0000000000000000e+00  5.7147579773617349e-03 -2.4848432164993869e-02 0.0000000000000000e+00  -9.1305939658251952e-03 6.9279035866057548e-02 0.0000000000000000e+00  -5.9153000475581766e-02 4.9142112626947523e-02 0.0000000000000000e+00  4.7852083016960298e-02 6.4408223610561977e-02 0.0000000000000000e+00  -2.3056567727154205e-02 -6.6871566503732049e-02 0.0000000000000000e+00  -4.4234262033189392e-02 1.0274825050903590e-02 0.0000000000000000e+00  1.6607544165734233e-04 1.2777519644443897e-01 0.0000000000000000e+00  -5.4672402682476536e-02 -8.4827568002917214e-02 0.0000000000000000e+00  1.4519805475994402e-02 -8.5912321880668885e-02 0.0000000000000000e+00  -7.8148628682402785e-02 -3.7933005591324412e-02 0.0000000000000000e+00  5.6465816047857872e-02 -8.2387118596812206e-02 0.0000000000000000e+00  7.8040898690735619e-02 -3.5840410577414494e-02 0.0000000000000000e+00  -1.6827633762774588e-02 -4.4341795037019544e-02 0.0000000000000000e+00  8.8079183178782772e-02 -4.4292010116551962e-02 0.0000000000000000e+00  8.7000340842606928e-03 6.8731713438939898e-02 0.0000000000000000e+00  -8.8509044639496118e-02 -4.2532151992065101e-02 0.0000000000000000e+00  5.5590943800607230e-02 -2.1942027838673529e-02 0.0000000000000000e+00  2.2930501187160991e-02 -3.1083932622699602e-02 0.0000000000000000e+00  -7.5700873703703712e-03 8.9236410626135534e-02 0.0000000000000000e+00  1.2777227170452985e-02 8.3636283057868438e-02 0.0000000000000000e+00  -1.8554970418020806e-02 -1.0409010216403845e-01 0.0000000000000000e+00  -6.8482807977442328e-02 -7.0767784160679012e-02 0.0000000000000000e+00  7.3187799040033960e-02 -6.5948437305528351e-02 0.0000000000000000e+00  2.1719342797198726e-02 -3.5374824380878099e-02 0.0000000000000000e+00  -1.0041373609606968e-02 1.0772817725403999e-01 0.0000000000000000e+00  4.9927745481773603e-02 -8.3642152719250268e-02 0.0000000000000000e+00  -3.1787188458294612e-02 -7.4786243202137032e-02 0.0000000000000000e+00  3.3983426794511030e-02 -6.8582022729964623e-02 0.0000000000000000e+00  -4.6626324995799953e-02 -8.5357689867451916e-02 0.0000000000000000e+00  6.9449282121835196e-02 1.4698484256526968e-02 0.0000000000000000e+00  -2.5229609216189268e-02 4.3193081505283261e-02 0.0000000000000000e+00  2.1576933415501227e-02 -9.2323458217778792e-02 0.0000000000000000e+00  -3.3066686663928389e-02 -4.1193869696862555e-02 0.0000000000000000e+00  6.0851804599516376e-02 7.5277748748131576e-02 0.0000000000000000e+00  4.6400102783751854e-02 5.4460325060432038e-02 0.0000000000000000e+00  -2.4343045519113971e-02 -9.1067769145700667e-02 0.0000000000000000e+00  4.9204997555030300e-03 -9.4270582905562783e-02 0.0000000000000000e+00  -1.1334952339053627e-03 -2.5656693923479516e-02 0.0000000000000000e+00  1.9143820317013668e-02 -9.7960821463748043e-02 0.0000000000000000e+00  6.4730460973686319e-03 6.1058663195728120e-02 0.0000000000000000e+00  -1.4386837232043412e-02 1.1883164165560139e-01 0.0000000000000000e+00  -1.8344600503404668e-03 1.2129608833688010e-01 0.0000000000000000e+00  -6.1445782661752098e-03 -9.7393758847978115e-02 0.0000000000000000e+00  7.6635680442280432e-02 3.4756888925956811e-02 0.0000000000000000e+00  2.0487984123170468e-02 -1.0990099024345813e-01 0.0000000000000000e+00  -3.7736622659099986e-03 1.1664392199235293e-01 0.0000000000000000e+00  -9.8120803796338571e-02 -1.3447614081383475e-02 0.0000000000000000e+00  9.8738061473162927e-02 8.2117293655394573e-03 0.0000000000000000e+00  -8.5377305883486410e-02 -4.9818280411414242e-02 0.0000000000000000e+00  -3.7635940617207958e-02 5.5914062439140481e-02 0.0000000000000000e+00  1.1777550617437398e-03 1.3023705029570665e-01 0.0000000000000000e+00  -7.3155869378457999e-02 6.5219049939431104e-02 0.0000000000000000e+00  -5.1646130851344313e-02 8.3650229833784021e-02 0.0000000000000000e+00  -9.5283817529653439e-02 2.7784536825116626e-02 0.0000000000000000e+00  -8.5934482030114737e-02 4.8732773817612617e-02 0.0000000000000000e+00  9.4835989006463631e-02 -2.8866012375580920e-02 0.0000000000000000e+00  8.4441519523766051e-02 -2.1678141169907870e-02 0.0000000000000000e+00  8.1665519272255738e-02 9.8082101266385481e-03 0.0000000000000000e+00  -1.7087329092179981e-02 -9.1288437675539388e-02 0.0000000000000000e+00  -5.5806130368644513e-02 6.6318743347877546e-02 0.0000000000000000e+00  6.8558794425441633e-02 -5.8394780115585167e-02 0.0000000000000000e+00  -8.6552225612182454e-02 2.6278336763853466e-02 0.0000000000000000e+00  -5.2265563774769465e-02 5.0003185050105758e-02 0.0000000000000000e+00  -3.0189351107013332e-02 7.4570576621639698e-02 0.0000000000000000e+00  -4.0154199036072154e-02 8.9989938141156578e-02 0.0000000000000000e+00  -7.1887589820094383e-02 4.8758318810444450e-02 0.0000000000000000e+00  -8.0740796565177270e-02 7.2991356349018282e-03 0.0000000000000000e+00  -8.3938510376430575e-02 -2.8648957629398016e-02 0.0000000000000000e+00  -9.8196017406131611e-02 1.5879736178541798e-02 0.0000000000000000e+00  -5.2949937413612922e-03 -7.8633816408982773e-02 0.0000000000000000e+00  -3.2053246112369298e-03 9.8617180900557114e-02 0.0000000000000000e+00  -7.9446150630270301e-02 5.8779316507238964e-02 0.0000000000000000e+00  -9.7359896704453507e-03 -9.6688182866223715e-02 0.0000000000000000e+00  8.9798295196058080e-03 1.2670528105957693e-01 0.0000000000000000e+00  5.5579047223918453e-02 -2.4343837243722963e-05 0.0000000000000000e+00  4.7475488233502582e-02 3.2397063310766111e-02 0.0000000000000000e+00  -5.3901543472409476e-02 -3.7320602315301731e-02 0.0000000000000000e+00  -2.0357819046718583e-02 -6.2837489785303374e-02 0.0000000000000000e+00  -4.2546269386131229e-02 6.0992752676303136e-02 0.0000000000000000e+00  -7.9684934891547987e-02 -5.9548632254995237e-02 0.0000000000000000e+00  9.8872097854390370e-02 -1.0679412201623262e-02 0.0000000000000000e+00  4.0993020074674640e-02 8.9366432960962805e-02 0.0000000000000000e+00  1.9211921051868544e-02 9.6109482523924511e-02 0.0000000000000000e+00  3.4786417802083323e-02 -8.7013602217128019e-02 0.0000000000000000e+00  1.2524598537054206e-02 -9.6438762623279231e-02 0.0000000000000000e+0