<?xml version="1.0"?>
<VTKFile type="UnstructuredGrid"  version="0.1"  >
<UnstructuredGrid>
<Piece  NumberOfPoints="1127" NumberOfCells="2108">
<Points>
<DataArray  type="Float64"  NumberOfComponents="3"  format="ascii">-1.009772848747815 0.1152775717669553 0  -1.001940069332672 0.004428395280941599 0  -0.9813155285641724 -0.1052803395376272 0  -0.9478095731144839 -0.2124051173568312 0  -0.9019115780323772 -0.3150992755759008 0  -0.8447447556037544 -0.4112539445104201 0  -0.7769294022369713 -0.5000550450752993 0  -0.7007050859508966 -0.579658500205426 0  -0.6202377121334876 -0.6473535032344024 0  -0.5374290980102573 -0.7036717742832257 0  -0.4504283822271399 -0.7510734489091234 0  -0.3605631264737144 -0.7893432369949483 0  -0.2677641646880756 -0.8187039644990748 0  -0.1723329036018451 -0.8393208263820013 0  -0.07619825721364559 -0.8507976421162616 0  0.02001958521301888 -0.8533254772361807 0  0.1157210006169265 -0.8468127260026934 0  0.2114416593175705 -0.8313892276853164 0  0.3054086124959822 -0.8070732421170494 0  0.3977065803618255 -0.7735830105574006 0  0.4862378509026258 -0.7314081944036923 0  0.5713119962315045 -0.6802351828822352 0  0.6527354899629629 -0.619782014615985 0  0.7312583884360657 -0.5474127490096475 0  0.8033220545741481 -0.4648374701382743 0  0.8665921844777486 -0.3737669450507269 0  0.9195153309073647 -0.2746036967713341 0  0.9608772885279212 -0.1694748395609345 0  0.9893400500710287 -0.06144617328582042 0  1.005262711886134 0.04919545402335589 0  1.007918632684792 0.1607356302905634 0  0.9978352380308914 0.2711313632583481 0  0.9753750627729261 0.3794236669515361 0  0.9400740912589273 0.4850491203686172 0  0.8929996945265751 0.5859796313429978 0  0.835483789426568 0.6797689326176279 0  0.7670191756047258 0.7676076976354145 0  0.6893353361282117 0.8470296280855234 0  0.6034689044580713 0.9171549820300853 0  0.5100391596099572 0.9778005013146276 0  0.4103035122694045 1.027815376749508 0  0.3066356024114178 1.066344790933563 0  0.1981089274589999 1.093923274445218 0  0.08799528358717207 1.109514826378048 0  -0.02314367910491516 1.113101772246947 0  -0.1337795568397027 1.104607455175749 0  -0.2438787530472924 1.084010742414545 0  -0.3505804663027786 1.051839985709804 0  -0.452346637814728 1.008571548512192 0  -0.5498115660062388 0.9540047186005378 0  -0.640216050192863 0.889437348044961 0  -0.7224586312396604 0.8157689860325297 0  -0.7962003743031969 0.7333020945688956 0  -0.8607446850248731 0.6425644852951312 0  -0.914443514493849 0.5452820237890916 0  -0.9567427719716767 0.442991308949457 0  -0.9869822447592204 0.3363811901073945 0  -1.005018874310637 0.2258503521539355 0  2.312576281938029 4.479023416035905e-06 0  2.303776469132068 0.2015517339161867 0  2.277446227121816 0.4015679504547925 0  2.233771749664671 0.5985333498175366 0  2.173113762400259 0.7909449812624727 0  2.095898035415463 0.9773324584536537 0  2.002750477542024 1.156292453161424 0  1.894347564478039 1.32643628863958 0  1.771537879905147 1.486499503071377 0  1.635239189435452 1.635232652140195 0  1.486496669412561 1.771531244595314 0  1.326447959169158 1.894352825897018 0  1.156287335024076 2.002744489797443 0  0.9773368708591512 2.095901027521479 0  0.7909471896934349 2.173107149296723 0  0.5985387067406865 2.233773819744194 0  0.4015742121293643 2.277440892492827 0  0.2015595701987508 2.303784352519683 0  7.22467156394519e-09 2.312573137383218 0  -0.2015555247240048 2.303774683595383 0  -0.4015820911401559 2.277450181318123 0  -0.5985391922182384 2.233785467135015 0  -0.7909462403611186 2.173107875799008 0  -0.9773375525909438 2.095903526980679 0  -1.156291996615126 2.002755778141544 0  -1.326439845317974 1.894347479800942 0  -1.486493350821009 1.771532260392563 0  -1.635236729899366 1.635233991462266 0  -1.771542327685364 1.486496060945647 0  -1.894354606712219 1.326442597944721 0  -2.002745635466391 1.156284348899328 0  -2.095899885929907 0.9773302583990751 0  -2.173115245307051 0.7909414497587989 0  -2.233778867724136 0.5985374989219995 0  -2.277443957998854 0.4015766397697944 0  -2.303768784359347 0.201554589134988 0  -2.312575236877396 2.541335086595721e-08 0  -2.303776987021227 -0.2015538150099716 0  -2.277443234757193 -0.4015746055697625 0  -2.233766573515307 -0.5985362421611164 0  -2.173109845300692 -0.7909500644760677 0  -2.09590719978439 -0.9773348193096083 0  -2.00275317649607 -1.156283967601491 0  -1.89434671051262 -1.326433792733142 0  -1.771538220039647 -1.486498208165662 0  -1.635234429571081 -1.635233161726904 0  -1.486494920262795 -1.771541094994535 0  -1.326436476133517 -1.894347689943954 0  -1.15628854621514 -2.002755962145895 0  -0.9773447518453158 -2.095908529620433 0  -0.7909461891602771 -2.173107499652439 0  -0.5985404089412119 -2.233783947392205 0  -0.4015731483474365 -2.277449114565695 0  -0.2015553772790812 -2.303782689465454 0  5.908537895290726e-07 -2.312573290397683 0  0.2015540657396415 -2.303784095728617 0  0.4015729580361655 -2.277441212346348 0  0.5985402011639865 -2.233783195453426 0  0.7909473124852218 -2.173106748573715 0  0.9773398675075995 -2.095912087387408 0  1.156287282691674 -2.00274591632654 0  1.326440372737092 -1.894357193530212 0  1.486497694914422 -1.771539162723418 0  1.635234844158678 -1.635232692119074 0  1.771539235651514 -1.486497889960127 0  1.894344571468553 -1.326434769972465 0  2.002742178523759 -1.156280868886146 0  2.095899120690686 -0.977330479604148 0  2.173100912407032 -0.7909433304467156 0  2.233766765816745 -0.5985364028229531 0  2.277432720944986 -0.4015729147499589 0  2.303765845546156 -0.2015537123707356 0  0.00101526513723854 0.1562648364849892 0  -0.06948983879686738 -1.593823092454442 0  0.6496644185591414 -1.460902297773519 0  -0.8623587967912605 -1.356630418955731 0  1.213310841619559 -1.066583374677204 0  -1.36823149600631 -0.8779950786376156 0  1.56115454766244 -0.5027882419721246 0  -1.636707301573274 -0.2290054298944308 0  1.65688979377386 0.2018101877924598 0  -1.622097677809442 0.4082362825196658 0  1.476401589591768 0.8140627800625679 0  -1.325416687997405 1.054671696091226 0  1.048398504523276 1.344945967506475 0  -0.7977481831022089 1.51122944875744 0  0.226746150356851 1.698463737406452 0  -0.312251889796563 1.751832521806575 0  -0.5087178004340066 0.0654190886590328 0  0.5147325683742179 0.1378273910289583 0  -0.3094938683073849 0.5333018280217847 0  0.2466124159925998 -0.273032926670229 0  0.2554032597896913 0.5680833267768109 0  -0.5502918520323625 -1.740774017151427 0  0.6022361456758587 1.434834118427511 0  -0.2390282322920679 -0.3066220466359776 0  0.4076590938593629 -1.83454803552959 0  1.151799362035842 -1.496654519144448 0  -0.409363167189187 -1.303408913447999 0  -1.286953871684329 -1.40067669467172 0  -1.751607682222942 -0.6492968545662159 0  0.2508287713181517 -1.278182737930553 0  1.697581238653445 -0.8847694678527805 0  1.896894924056686 -0.2572237474676117 0  -1.696360254389428 0.8684454095387462 0  -1.917258765697138 0.07353632509167693 0  1.838799120840503 0.5671330838623124 0  0.7798067173089654 -1.065141581776277 0  0.8856552612409448 1.712478184006107 0  -0.9410489840639701 -0.9477794040282159 0  1.434491709328378 1.299198540957134 0  -1.186545636785526 1.530564647227742 0  -1.288133926678289 -0.4779700655527878 0  1.170063353820321 -0.664836197986351 0  1.397584222108885 -0.1327540759558412 0  -0.2308974011817816 -1.934709113077799 0  -1.398142273147058 0.07435529518695101 0  0.768199609829802 -1.806054957155899 0  -1.365345222575586 0.6761223690542354 0  -0.919683918775131 -1.724086697365478 0  1.348686172398931 0.4130145514051991 0  -0.06809899990473821 1.473793123128386 0  -0.4437240574318846 1.403888530136988 0  -0.9357899106093981 1.139623259265951 0  1.113291505225583 0.9528134078327555 0  1.460145092921921 -1.327374069070593 0  1.979832783845468 0.07671039718834553 0  -1.705101183298697 -0.9857611201539573 0  -0.07885592663051903 -1.212327715758998 0  1.890182801223087 -0.6108734191500537 0  -1.908035330986063 0.5908043757901803 0  -0.04097039073170702 0.7692577254457081 0  -0.658217441726941 1.845560918154419 0  -1.976365100943674 -0.2663851325488879 0  -0.6257810228000301 0.3787237848201278 0  0.5518270137958095 1.872230541926158 0  0.5733129203556326 -0.2073015690537663 0  -0.01935700183779997 1.960371812318406 0  -0.6226230820951257 -1.058353252842481 0  1.6942078788208 1.067018420276177 0  -1.46338752234076 1.357915038853587 0  0.1039269211858186 -1.983742135228248 0  0.5860390081046309 0.461859785819158 0  -1.101055855523235 0.8343029128427232 0  0.7834655935878676 1.171882813109115 0  -0.5817978174795372 -0.2497307084603125 0  1.268658434493479 1.561167643595812 0  -0.9786894512018195 1.759031807446291 0  0.01649875664732576 -0.5008209463600639 0  0.2898318677445245 1.389280242999194 0  -1.296455609680786 0.3655759468436975 0  -1.039369690823644 -0.6681227857906354 0  -1.562506863294581 -1.25900835196987 0  1.20556507441324 -0.3751309604995606 0  1.1818940079979 0.6587758865418941 0  0.4722969178364756 -1.084838944450255 0  0.2776125453563459 1.992134564612217 0  -1.341039108433597 -0.2039482193869344 0  0.987594762929375 -0.8773752149950889 0  0.2311290536376423 -1.584204118509683 0  -1.088926896435053 -1.192520790156479 0  -0.0200058491379717 0.4452871500222903 0  0.9075109536457207 -1.32999766243591 0  1.377681142382069 0.1389355105458474 0  -0.6825832043538147 1.256991102612055 0  1.447136071392028 -0.7491819834640786 0  -1.666708401933393 1.157200895806955 0  -0.2889613122514097 2.028799078561508 0  -0.007149872680358647 -0.1300499067120325 0  -0.2401369182140898 0.01374752244916592 0  -0.2420594007937384 0.2792005796262267 0  1.684265344589225 -0.07393020755725609 0  -0.7614186120002697 0.08457801416866492 0  0.75805646025831 0.1998770326799569 0  0.2228992240517696 0.823819329579272 0  1.73735038426764 0.8066489231080224 0  -2.010425130999862 0.3364811299461288 0  -0.3106853984400284 0.7919382522552239 0  -0.5494619782900648 0.6308207208698278 0  2.007249052299076 0.3523564707519009 0  0.410130311447
[...]
<PointData  Vectors="f_2863-0"> 
<DataArray  type="Float64"  Name="f_2863-0"  NumberOfComponents="3" format="ascii">-1.0708132575982902e-02 -7.4720629205893244e-02 0.0000000000000000e+00  6.1867242193582150e-03 -8.5286242159553119e-02 0.0000000000000000e+00  2.5709042186756421e-02 -9.4966669628588671e-02 0.0000000000000000e+00  4.8056523025599582e-02 -1.0309893174590416e-01 0.0000000000000000e+00  7.2591305137119325e-02 -1.0855688760502080e-01 0.0000000000000000e+00  9.7755994060429618e-02 -1.0866940168426407e-01 0.0000000000000000e+00  1.2262087681484855e-01 -1.0399298279589080e-01 0.0000000000000000e+00  1.4173331835083089e-01 -9.1782632724757215e-02 0.0000000000000000e+00  1.4647872411507865e-01 -6.9658835026580407e-02 0.0000000000000000e+00  1.3877896945738552e-01 -4.3438812128371175e-02 0.0000000000000000e+00  1.2565370613712018e-01 -1.9523961230228142e-02 0.0000000000000000e+00  1.0561010176544262e-01 1.9496245899561870e-03 0.0000000000000000e+00  8.2237155552945959e-02 1.8954317467067144e-02 0.0000000000000000e+00  5.6229248409484317e-02 3.1491097714308587e-02 0.0000000000000000e+00  2.7075584564786700e-02 3.8648457451384316e-02 0.0000000000000000e+00  -3.5625970393232211e-03 4.0350958441688047e-02 0.0000000000000000e+00  -3.4579273129758538e-02 3.6821404140193366e-02 0.0000000000000000e+00  -6.3047155905842048e-02 2.7551989087914643e-02 0.0000000000000000e+00  -8.8812603323640771e-02 1.3289640852713499e-02 0.0000000000000000e+00  -1.0980303496759899e-01 -4.7724769158283865e-03 0.0000000000000000e+00  -1.2749210064141603e-01 -2.7230976402604950e-02 0.0000000000000000e+00  -1.3986974625722293e-01 -5.2434593193681517e-02 0.0000000000000000e+00  -1.4460524735741573e-01 -7.8222417165693364e-02 0.0000000000000000e+00  -1.3454547101808928e-01 -9.7413302959415332e-02 0.0000000000000000e+00  -1.1508092447855198e-01 -1.0890179157316432e-01 0.0000000000000000e+00  -9.1177386934656005e-02 -1.1280257273088762e-01 0.0000000000000000e+00  -6.5298296485597263e-02 -1.1014430309248355e-01 0.0000000000000000e+00  -4.0569344255600701e-02 -1.0240641713821678e-01 0.0000000000000000e+00  -1.9350568245589748e-02 -9.4456236159090629e-02 0.0000000000000000e+00  -2.7872513046546521e-04 -8.3748497381273990e-02 0.0000000000000000e+00  1.5935308521144612e-02 -7.1585582986054219e-02 0.0000000000000000e+00  2.9481990222420398e-02 -5.9349182695776957e-02 0.0000000000000000e+00  4.0820556886769652e-02 -4.6837808956201883e-02 0.0000000000000000e+00  4.9233384725427196e-02 -3.2068088068562685e-02 0.0000000000000000e+00  5.4661883766455907e-02 -1.6628280436325301e-02 0.0000000000000000e+00  5.9154346029946299e-02 -4.3740916985630608e-03 0.0000000000000000e+00  5.9173214797608384e-02 1.0706249425808587e-02 0.0000000000000000e+00  5.7425766408095040e-02 2.3975464629747378e-02 0.0000000000000000e+00  5.3819557607439096e-02 3.5827511171659193e-02 0.0000000000000000e+00  4.7406030603270706e-02 4.6962732333205665e-02 0.0000000000000000e+00  3.8549719111140829e-02 5.6561745484971934e-02 0.0000000000000000e+00  3.1243623713607852e-02 6.3350466637586492e-02 0.0000000000000000e+00  1.9181121230695930e-02 6.9268845498771603e-02 0.0000000000000000e+00  8.7283148837575732e-03 7.2129303630185035e-02 0.0000000000000000e+00  -2.5617055382628701e-03 7.2880578711026864e-02 0.0000000000000000e+00  -1.2939167823259821e-02 7.1519468991372973e-02 0.0000000000000000e+00  -2.5287530598966119e-02 6.7498888172785737e-02 0.0000000000000000e+00  -3.5452644140783932e-02 6.1433934520577597e-02 0.0000000000000000e+00  -4.2600306201849042e-02 5.4245687453374158e-02 0.0000000000000000e+00  -5.0790007433411097e-02 4.3865860209528616e-02 0.0000000000000000e+00  -5.6053498541274414e-02 3.2484006538474892e-02 0.0000000000000000e+00  -5.8285472809329539e-02 2.0809478936372687e-02 0.0000000000000000e+00  -5.8699402243231572e-02 7.9260227261929370e-03 0.0000000000000000e+00  -5.7464922021382925e-02 -6.6346006819473120e-03 0.0000000000000000e+00  -5.3495687646190414e-02 -2.1444736191836958e-02 0.0000000000000000e+00  -4.6554503843759393e-02 -3.5229691763918179e-02 0.0000000000000000e+00  -3.7118198398426068e-02 -4.8386546770525715e-02 0.0000000000000000e+00  -2.5346253205539938e-02 -6.3696436396970021e-02 0.0000000000000000e+00  1.3412301426107470e-01 1.8036592564635819e-05 0.0000000000000000e+00  1.3361360107010467e-01 1.1680163834320141e-02 0.0000000000000000e+00  1.3209716036406716e-01 2.3263054329985912e-02 0.0000000000000000e+00  1.2953521300842208e-01 3.4697936246143958e-02 0.0000000000000000e+00  1.2604433700534021e-01 4.5863215615982118e-02 0.0000000000000000e+00  1.2153195923544284e-01 5.6667077248310070e-02 0.0000000000000000e+00  1.1615530689866045e-01 6.7076777527066353e-02 0.0000000000000000e+00  1.0985506449030294e-01 7.6918995843705970e-02 0.0000000000000000e+00  1.0275019065782534e-01 8.6225455640994708e-02 0.0000000000000000e+00  9.4842561847640353e-02 9.4820877928113959e-02 0.0000000000000000e+00  8.6215194219327038e-02 1.0273017670849274e-01 0.0000000000000000e+00  7.6959953437065312e-02 1.0987032513488529e-01 0.0000000000000000e+00  6.7061426284213882e-02 1.1613594317743277e-01 0.0000000000000000e+00  5.6680232788316541e-02 1.2154279093903735e-01 0.0000000000000000e+00  4.5873679279524328e-02 1.2602210173943784e-01 0.0000000000000000e+00  3.4712287752603772e-02 1.2954329415788987e-01 0.0000000000000000e+00  2.3287955255672739e-02 1.3207934351149542e-01 0.0000000000000000e+00  1.1706780715200074e-02 1.3363956969063900e-01 0.0000000000000000e+00  1.7688787718854907e-06 1.3411359197487757e-01 0.0000000000000000e+00  -1.1695294506654737e-02 1.3360826927742836e-01 0.0000000000000000e+00  -2.3318464462800472e-02 1.3210827088163615e-01 0.0000000000000000e+00  -3.4711240397139284e-02 1.2958117645979889e-01 0.0000000000000000e+00  -4.5869195354921059e-02 1.2602478860142902e-01 0.0000000000000000e+00  -5.6684793957278462e-02 1.2154947321203317e-01 0.0000000000000000e+00  -6.7075259997805531e-02 1.1617287241525638e-01 0.0000000000000000e+00  -7.6928641169587378e-02 1.0985658637933973e-01 0.0000000000000000e+00  -8.6208806881959199e-02 1.0272938086060908e-01 0.0000000000000000e+00  -9.4834026393976451e-02 9.4825339269430375e-02 0.0000000000000000e+00  -1.0276738179543904e-01 8.6211152003620936e-02 0.0000000000000000e+00  -1.0987541583732169e-01 7.6942434875445262e-02 0.0000000000000000e+00  -1.1614053778659199e-01 6.7049139100303357e-02 0.0000000000000000e+00  -1.2153682765486686e-01 5.6662773471231789e-02 0.0000000000000000e+00  -1.2605103985799201e-01 4.5847183765432779e-02 0.0000000000000000e+00  -1.2955870849726123e-01 3.4708070419332493e-02 0.0000000000000000e+00  -1.3208756658567586e-01 2.3300334733453113e-02 0.0000000000000000e+00  -1.3358881546624246e-01 1.1688902478492059e-02 0.0000000000000000e+00  -1.3411962267323418e-01 -2.3597359663539207e-06 0.0000000000000000e+00  -1.3361538296705530e-01 -1.1686154853938683e-02 0.0000000000000000e+00  -1.3208650513619374e-01 -2.3289201919688821e-02 0.0000000000000000e+00  -1.2951913220908293e-01 -3.4705146828711390e-02 0.0000000000000000e+00  -1.2603035560019377e-01 -4.5883759462392891e-02 0.0000000000000000e+00  -1.2156259767453108e-01 -5.6673444626738893e-02 0.0000000000000000e+00  -1.1616623841870137e-01 -6.7046861692580367e-02 0.0000000000000000e+00  -1.0985128707931001e-01 -7.6913364240020307e-02 0.0000000000000000e+00  -1.0275180248681134e-01 -8.6221405517811586e-02 0.0000000000000000e+00  -9.4827042387020610e-02 -9.4822791388689986e-02 0.0000000000000000e+00  -8.6211062289453938e-02 -1.0276057261311181e-01 0.0000000000000000e+00  -7.6921679582297967e-02 -1.0985444475213610e-01 0.0000000000000000e+00  -6.7059834804229668e-02 -1.1617577548401044e-01 0.0000000000000000e+00  -5.6711572295648272e-02 -1.2156389524084704e-01 0.0000000000000000e+00  -4.5868549596671762e-02 -1.2602359396073606e-01 0.0000000000000000e+00  -3.4715846857900523e-02 -1.2957575304528515e-01 0.0000000000000000e+00  -2.3287975285991431e-02 -1.3210455299094809e-01 0.0000000000000000e+00  -1.1693134883846028e-02 -1.3363367070269960e-01 0.0000000000000000e+00  9.8090516127145223e-07 -1.3411357384686085e-01 0.0000000000000000e+00  1.1688427576204819e-02 -1.3363840868543014e-01 0.0000000000000000e+00  2.3286236711388266e-02 -1.3207937258089145e-01 0.0000000000000000e+00  3.4717996294386794e-02 -1.2957262650869242e-01 0.0000000000000000e+00  4.5870926947294111e-02 -1.2602170041556654e-01 0.0000000000000000e+00  5.6693392963482338e-02 -1.2157660250343046e-01 0.0000000000000000e+00  6.7058637478189562e-02 -1.1614183684474974e-01 0.0000000000000000e+00  7.6934206506899000e-02 -1.0988508597334556e-01 0.0000000000000000e+00  8.6220494558882130e-02 -1.0275381862437549e-01 0.0000000000000000e+00  9.4827703865140667e-02 -9.4821802307044456e-02 0.0000000000000000e+00  1.0275465386341245e-01 -8.6220776720921571e-02 0.0000000000000000e+00  1.0984547756860207e-01 -7.6914473527585195e-02 0.0000000000000000e+00  1.1612887348522123e-01 -6.7039458313666270e-02 0.0000000000000000e+00  1.2153499796816142e-01 -5.6662901721473195e-02 0.0000000000000000e+00  1.2600295097836933e-01 -4.5859197148508141e-02 0.0000000000000000e+00  1.2952059533101604e-01 -3.4703324455480279e-02 0.0000000000000000e+00  1.3205210522521948e-01 -2.3286708682645020e-02 0.0000000000000000e+00  1.3357983219130870e-01 -1.1685407744435865e-02 0.0000000000000000e+00  -1.0110171367997823e-03 1.3869231369797771e-01 0.0000000000000000e+00  -3.2402057032767727e-03 -8.2157717499582811e-02 0.0000000000000000e+00  2.8520098417687646e-02 -7.7334881913223949e-02 0.0000000000000000e+00  -3.7537449250120938e-02 -7.0883827995033080e-02 0.0000000000000000e+00  4.6263145922220285e-02 -5.4647514400281469e-02 0.0000000000000000e+00  -4.5539051189737605e-02 -5.0005145814373875e-02 0.0000000000000000e+00  5.0369503757435818e-02 -5.0675287003376319e-02 0.0000000000000000e+00  -6.0230225242033350e-02 -5.2079817610086496e-02 0.0000000000000000e+00  8.0135084867074283e-02 -4.2995250745679586e-02 0.0000000000000000e+00  -8.9817087035673274e-02 -3.5385654374107796e-02 0.0000000000000000e+00  1.0192252823203576e-01 -7.3594049867845256e-03 0.0000000000000000e+00  -1.0345343304610212e-01 1.5932561581611493e-02 0.0000000000000000e+00  9.3041935670945777e-02 4.8994013020907022e-02 0.0000000000000000e+00  -7.5463032002012861e-02 7.2437316725695464e-02 0.0000000000000000e+00  2.3747242114904921e-02 1.0017769942219103e-01 0.0000000000000000e+00  -3.0294963473104664e-02 1.0455570105559657e-01 0.0000000000000000e+00  -3.2941178605932972e-02 5.9061929545735734e-02 0.0000000000000000e+00  3.5774382279366745e-02 5.9224486770908656e-02 0.0000000000000000e+00  -3.2124406309933635e-02 9.0278810717618965e-02 0.0000000000000000e+00  -1.1626014670488917e-02 1.2714936959994183e-01 0.0000000000000000e+00  2.5424200400211920e-02 9.5419597681726642e-02 0.0000000000000000e+00  -3.6285286113387029e-02 -1.0182161433991002e-01 0.0000000000000000e+00  6.0778866850715180e-02 6.7988941242928591e-02 0.0000000000000000e+00  1.3164875018158290e-02 1.2607717832666385e-01 0.0000000000000000e+00  2.7291471801048538e-02 -1.1059049727529383e-01 0.0000000000000000e+00  7.5071337917073697e-02 -8.4090146938369068e-02 0.0000000000000000e+00  3.4433614479439014e-03 -5.6066875173611259e-02 0.0000000000000000e+00  -8.1682016241067010e-02 -7.7505988207180063e-02 0.0000000000000000e+00  -9.0295018644738462e-02 -4.8226191451652960e-02 0.0000000000000000e+00  -8.2229681434109227e-03 -4.7104565025164948e-02 0.0000000000000000e+00  9.4807789170317458e-02 -5.3022108495284478e-02 0.0000000000000000e+00  1.0417207765188503e-01 -3.7988439083882455e-02 0.0000000000000000e+00  -1.1938314564277608e-01 1.3641176270831782e-02 0.0000000000000000e+00  -1.1104951005162231e-01 -2.8374599428288478e-02 0.0000000000000000e+00  1.1905043863896085e-01 -4.0110207826981039e-03 0.0000000000000000e+00  -1.3089664260100099e-02 -6.0981245625001158e-02 0.0000000000000000e+00  7.7629213844308320e-02 9.4040706846054006e-02 0.0000000000000000e+00  1.2766811135451073e-02 -5.7827150207354065e-02 0.0000000000000000e+00  1.1192159234524017e-01 5.1383954273153780e-02 0.0000000000000000e+00  -9.7969865081100407e-02 7.4483485878878791e-02 0.0000000000000000e+00  1.1028298421738641e-02 -6.3307876332392599e-02 0.0000000000000000e+00  -2.1833610416369963e-02 -5.6309452948384429e-02 0.0000000000000000e+00  1.7324119196313201e-02 -6.8477821163209149e-02 0.0000000000000000e+00  -1.6563283395626523e-02 -1.1890963461810185e-01 0.0000000000000000e+00  -3.1668467119399378e-02 -6.8117510704925027e-02 0.0000000000000000e+00  5.3145962160914252e-02 -1.0899798320005519e-01 0.0000000000000000e+00  -8.4646920414220866e-02 -2.7823543922327758e-02 0.0000000000000000e+00  -6.3132338071455615e-02 -1.0199522151228398e-01 0.0000000000000000e+00  5.8395292672667784e-02 -5.2829701532150310e-02 0.0000000000000000e+00  -6.4029558259315290e-03 8.2423590734441110e-02 0.0000000000000000e+00  -4.5427779715227913e-02 7.0778792055927839e-02 0.0000000000000000e+00  -8.1458347290316313e-02 2.5859379683926445e-02 0.0000000000000000e+00  8.5690896529147936e-02 -5.8118192440564855e-04 0.0000000000000000e+00  9.3265630458422705e-02 -7.3671690153969821e-02 0.0000000000000000e+00  1.1814651105981916e-01 -2.2319018552673063e-02 0.0000000000000000e+00  -1.0031377437472151e-01 -5.7641091752896612e-02 0.0000000000000000e+00  7.4953842615083262e-03 -3.3737354783945239e-02 0.0000000000000000e+00  1.0808971906294605e-01 -4.5163359172291730e-02 0.0000000000000000e+00  -1.2493753494915433e-01 3.8174002859259833e-03 0.0000000000000000e+00  -4.6469429026185418e-03 9.3857790912875966e-02 0.0000000000000000e+00  -5.7458183995531549e-02 1.0940905243977686e-01 0.0000000000000000e+00  -1.1418554293497181e-01 -3.4908110864219973e-02 0.0000000000000000e+00  -4.7614208597608842e-02 3.3903491862555792e-02 0.0000000000000000e+00  4.9519646516229476e-02 1.1245800728172235e-01 0.0000000000000000e+00  -9.0202440993633094e-03 1.7276826042097727e-02 0.0000000000000000e+00  -1.2434000867963873e-03 1.2286169391198951e-01 0.0000000000000000e+00  3.5028242069096514e-02 -5.5849816299629026e-02 0.0000000000000000e+00  1.2146964586154048e-01 3.6528450702454140e-02 0.0000000000000000e+00  -1.1178677692901437e-01 6.0234138209543091e-02 0.0000000000000000e+00  6.8317010309814239e-03 -1.2287266004693155e-01 0.0000000000000000e+00  4.7367719644766521e-02 4.3290450864355720e-02 0.0000000000000000e+00  -7.8729160004385040e-02 -1.1594534809483843e-02 0.0000000000000000e+00  7.2465533680712901e-02 3.4904897076105633e-02 0.0000000000000000e+00  1.8102493825114158e-02 8.0855795761961332e-03 0.0000000000000000e+00  1.0021196969108385e-01 7.9121181319127626e-02 0.0000000000000000e+00  -8.0112022715596282e-02 9.8975825081776408e-02 0.0000000000000000e+00  -3.6938031210344089e-03 1.3043971672171342e-01 0.0000000000000000e+00  3.1550287892475916e-02 7.3295719559721625e-02 0.0000000000000000e+00  -5.1078528606515634e-02 -5.7978623652120850e-02 0.0000000000000000e+00  5.2768537826627784e-02 -6.4587295515698459e-02 0.0000000000000000e+00  -9.8366061787747885e-02 -7.0754487686815276e-02 0.0000000000000000e+00  -3.1423600803953684e-02 -7.7148971981679790e-02 0.0000000000000000e+00  6.9001781839803572e-02 -3.2620184864521340e-02 0.0000000000000000e+00  -3.7981667717587743e-02 -4.7831330543786417e-02 0.0000000000000000e+00  2.4337927629662942e-02 1.2399165782869644e-01 0.0000000000000000e+00  -2.3907199224942506e-03 -7.2556290296308890e-02 0.0000000000000000e+00  -1.8603091243863754e-02 -5.6946257319057843e-02 0.0000000000000000e+00  9.7127147484758897e-03 -8.2418659580922149e-02 0.0000000000000000e+00  -4.4845146697848816e-02 -6.1466092921730740e-02 0.0000000000000000e+00  -2.7235514300210863e-03 1.1771599811403897e-01 0.0000000000000000e+00  4.0333066048760538e-02 -7.0022394451505515e-02 0.0000000000000000e+00  3.4649677389977894e-02 -6.6560846706992874e-02 0.0000000000000000e+00  -6.5701269712737265e-02 4.8900782848383284e-02 0.0000000000000000e+00  4.5685635553683809e-02 -4.8800119596406760e-02 0.0000000000000000e+00  -1.2015141357641862e-01 4.5603859774148686e-02 0.0000000000000000e+00  -2.3652135698436383e-02 1.2626602648252502e-01 0.0000000000000000e+00  -1.6787998999997049e-03 1.5091510024409702e-01 0.0000000000000000e+00  -1.8556737308190265e-02 1.2578128278306117e-01 0.0000000000000000e+00  -2.5294747713874542e-02 1.1334587783467470e-01 0.0000000000000000e+00  7.2269613751931500e-02 -4.7761895603393861e-02 0.0000000000000000e+00  -2.8276282763912364e-02 -2.2858044870705994e-02 0.0000000000000000e+00  3.7062842988225625e-02 -1.1587728150463650e-02 0.0000000000000000e+00  2.2592531268006685e-02 8.3266894564834867e-02 0.0000000000000000e+00  1.1972495741554524e-01 1.0208280546153399e-02 0.0000000000000000e+00  -1.2613440619057215e-01 -6.3032968343465961e-03 0.0000000000000000e+00  -3.1573848436015586e-02 7.6658048766455211e-02 0.0000000000000000e+00  -5.0611733108767071e-02 5.2198548531149684e-02 0.0000000000000000e+00  1.2596396612305488e-01 -4.8215528871455174e-03 0.0000000000000000e+00  -7.3494764881138083e-02 5.9406425366616784e-02 0.0000000000000000e+00  8.0743732801966214e-02 -5.7069652059145388e-02 0.0000000000000000e+00  2.5130959703652523e-02 1.1121098648100564e-01 0.0000000000000000e+00  1.6340837365667854e-02 1.2508930609350113e-01 0.0000000000000000e+00  4.3592001593301205e-02 6.1189252412922779e-02 0.0000000000000000e+00  -7.0852709994956922e-02 -4.9550720527306802e-02 0.0000000000000000e+00  7.1494461007715587e-02 -1.0447493368903334e-01 0.0000000000000000e+00  8.9653811061470884e-02 -3.3231925516899338e-02 0.0000000000000000e+00  -1.7884971098072619e-02 -9.4926404797798070e-02 0.0000000000000000e+00  3.8380408140350694e-02 -2.8783787561235948e-02 0.0000000000000000e+00  -5.1672980194594292e-02 -1.1688313835499856e-01 0.0000000000000000e+00  -4.1814981669648400e-02 -8.6322594294907573e-02 0.0000000000000000e+00  -3.4179298933061777e-02 -1.2305387879850083e-01 0.0000000000000000e+00  -8.0410234954317442e-02 -9.7221796242451752e-02 0.0000000000000000e+00  6.2450503598990861e-02 8.8137627560646845e-02 0.0000000000000000e+00  -5.2259767784724971e-02 9.0366639564062198e-02 0.0000000000000000e+00  -1.0258880113884980e-01 4.3555653310417747e-02 0.0000000000000000e+00  -6.1443510411729246e-03 1.0306641922634523e-01 0.0000000000000000e+00  1.0773542620462057e-01 -6.5000033591324086e-02 0.0000000000000000e+00  5.4843664641056090e-02 -8.9177280495034691e-02 0.0000000000000000e+00  -1.1889097142201403e-01 -4.4097577502761547e-02 0.0000000000000000e+00  1.1076222364149882e-01 2.0986192263123753e-02 0.0000000000000000e+00  -4.3802817461060191e-02 -5.0174231373925973e-02 0.0000000000000000e+00  -7.0447172871434982e-02 -6.1060377740752542e-02 0.0000000000000000e+00  6.3354357798661026e-02 5.3409220021295216e-02 0.0000000000000000e+00  -6.0809602061792929e-02 -4.0479468421408628e-02 0.0000000000000000e+00  6.1800006854747444e-02 1.1506354959285583e-01 0.0000000000000000e+00  1.0078813423710517e-01 2.8423873847291243e-02 0.0000000000000000e+00  4.3101163272378451e-02 -1.2266700759960744e-01 0.0000000000000000e+00  -1.1400558349934785e-01 -5.2890635449673665e-02 0.0000000000000000e+00  -1.0947665989838999e-01 -1.1790752747008222e-02 0.0000000000000000e+00  -8.9830403718608162e-02 5.3758444431579018e-02 0.0000000000000000e+00  1.5847463094205851e-02 -9.5790729767819705e-03 0.0000000000000000e+00  -4.0028958557319340e-02 -5.4072778363067397e-02 0.0000000000000000e+00  4.7407556181114321e-02 9.1607765762790561e-02 0.0000000000000000e+00  4.7609669003730225e-02 5.6602649067619901e-02 0.0000000000000000e+00  7.8863179033637279e-02 5.7928046423176276e-02 0.0000000000000000e+00  -1.0183498592414061e-01 -3.0379901872643039e-02 0.0000000000000000e+00  4.8805510067325177e-02 -5.3953576285720388e-02 0.0000000000000000e+00  -2.0093435327182319e-02 -7.9222084811146620e-02 0.0000000000000000e+00  -1.5731855215432813e-02 -6.6945267921294557e-02 0.0000000000000000e+00  -1.3984390044728531e-03 -6.1295393227033958e-02 0.000000