<?xml version="1.0"?>
<VTKFile type="UnstructuredGrid"  version="0.1"  >
<UnstructuredGrid>
<Piece  NumberOfPoints="829" NumberOfCells="1578">
<Points>
<DataArray  type="Float64"  NumberOfComponents="3"  format="ascii">-0.9752521564027778 -0.02599226171456456 0  -0.9651800258454051 -0.1336623457731975 0  -0.9423448128371349 -0.2392959689626965 0  -0.9075415326275287 -0.3410223695631848 0  -0.8609939473268134 -0.4383800275082692 0  -0.8043796227728253 -0.5284408035799913 0  -0.7400643548705517 -0.609349606675503 0  -0.6697499897063854 -0.6804750370825935 0  -0.5942392743047679 -0.7425601197285006 0  -0.5142523459356714 -0.7958610500761681 0  -0.4290915191676557 -0.8411262589153728 0  -0.3409944714014805 -0.8776205570853768 0  -0.249289838265719 -0.9058674465080174 0  -0.1555932198471934 -0.9249741566271913 0  -0.06100628848636252 -0.9352144425776978 0  0.03372820053574014 -0.9366150055196465 0  0.1289745128378005 -0.9289093301431859 0  0.2231761734840763 -0.9122769767972043 0  0.3153065869204557 -0.8865635839241346 0  0.4048003845749522 -0.8524427110969216 0  0.4903500573685606 -0.8099247356572635 0  0.5716146156908926 -0.7590675825210885 0  0.6481199568996721 -0.6999519113690631 0  0.7199537462449636 -0.631555079753549 0  0.786271585401797 -0.5534111047784154 0  0.8453286938653211 -0.4657553479579996 0  0.8950275715926587 -0.3702545218564976 0  0.9335194585063357 -0.269409563620791 0  0.9597713234995066 -0.165029048616557 0  0.9735285629881519 -0.05773888472100529 0  0.9745615965716243 0.05028508830909701 0  0.9631173420824184 0.1570651115176044 0  0.9395282950756575 0.2614349578360449 0  0.9036008816912062 0.3635879609069499 0  0.8568492093680696 0.4598753026685404 0  0.79913150841976 0.5506079132671188 0  0.731943130361238 0.6338844829720317 0  0.6555108131205596 0.7096083845741918 0  0.5709736092200366 0.7764866849646833 0  0.4797698679203275 0.8335952746616423 0  0.3826371214234913 0.8805426392168407 0  0.2815165880290666 0.9164400093458291 0  0.1768035130446504 0.9411942242780892 0  0.0692682338187 0.954527901124843 0  -0.03808027901536612 0.9564008817222017 0  -0.1457185968753704 0.9462429883929195 0  -0.2511614461681703 0.9246743554721163 0  -0.3535487278374105 0.8918588597650187 0  -0.4517885708561047 0.8481879524026904 0  -0.5451400851447178 0.7937828547670225 0  -0.6315317402584502 0.7297598154810063 0  -0.7097783905963044 0.6573335635776445 0  -0.7800459683761988 0.5761880625387595 0  -0.8410556708437227 0.4871301639221743 0  -0.8915423817707026 0.3916447568303151 0  -0.9302517439040238 0.2920359178949216 0  -0.9577617346174531 0.1875744551942936 0  -0.9727382032618639 0.08136910229688814 0  2.052423606483635 0.0002395612899485308 0  2.042549810593485 0.201170711334236 0  2.013034786499139 0.4001725730183824 0  1.963977889529145 0.5960206516963972 0  1.896215157410804 0.785403120274162 0  1.810088921874696 0.9675139345328068 0  1.706541127505496 1.140272122704134 0  1.586559799134676 1.302052133262148 0  1.451293966397386 1.451293409065898 0  1.30205674554502 1.586557043135396 0  1.140275519080756 1.706541769099626 0  0.9675164753126231 1.810091686985919 0  0.7854348095050183 1.896208454282955 0  0.5957971977715174 1.964064481837343 0  0.4003806995050563 2.013009168526183 0  0.2014203086322638 2.042523375819321 0  -0.0002472178714000025 2.052430780697606 0  -0.2011402478043569 2.042561769629399 0  -0.4004465391061046 2.012996962742904 0  -0.5955519621599074 1.964125163287723 0  -0.7856598446796044 1.896103701056381 0  -0.9674873809356297 1.810104408260736 0  -1.140280056200354 1.706539461013841 0  -1.302055159272159 1.586558603491715 0  -1.451295941113112 1.451291542826415 0  -1.586558543153445 1.30205286468678 0  -1.706540424971206 1.14027503898704 0  -1.810102964988155 0.9674819829929115 0  -1.896099313677197 0.7856583599375925 0  -1.964018822730807 0.5957755203380031 0  -2.013042759915137 0.4001174485418033 0  -2.042509764427459 0.2014630296864187 0  -2.052390833361964 -5.348013268236321e-07 0  -2.042516449751083 -0.2014183111529881 0  -2.012993038589472 -0.4004099334041524 0  -1.964116360404281 -0.595555558577533 0  -1.896096939691978 -0.7856569260944354 0  -1.810098378786331 -0.9674831647014196 0  -1.706539273678504 -1.140273100646283 0  -1.586533368033327 -1.302073916727514 0  -1.451459746534072 -1.451108404437408 0  -1.301859677979583 -1.586700871709347 0  -1.140273010057546 -1.706536798272263 0  -0.9677202553260263 -1.809969982107835 0  -0.7851999415226463 -1.896291521633619 0  -0.5958264473920635 -1.964050434082375 0  -0.4003767917161762 -2.013010199213239 0  -0.2014175913232824 -2.042521692667544 0  0.0002909322150558391 -2.05242668784595 0  0.2008854560614582 -2.04257175900775 0  0.4006517084777902 -2.012944791767914 0  0.5957624568980135 -1.964069721305788 0  0.785438751004009 -1.896206472695686 0  0.9675138108376197 -1.810089520585738 0  1.140272978093791 -1.70654074581819 0  1.302054868022652 -1.586555672488409 0  1.451290077349876 -1.45129462109682 0  1.586573153509741 -1.302027992565298 0  1.706392638483854 -1.140467812838057 0  1.810191210191299 -0.967288884991117 0  1.896188196593545 -0.7854599032917214 0  1.964058231920424 -0.5957925581813946 0  2.013000502502725 -0.4003797573628505 0  2.042515613155001 -0.2014180157629212 0  0.002087305137882245 0.03885075781285369 0  0.5141225699328998 1.41535952181912 0  -0.07469922556145402 1.504918454286224 0  -0.652099483473545 1.359561075164631 0  -0.3370183474119922 -1.466977163424062 0  -1.12991756740027 1.004609308717983 0  1.024748107427139 1.111248962931703 0  0.2917793861365236 -1.47511219069115 0  -0.8969722548546691 -1.217613691480705 0  0.8710795534686439 -1.232482665491883 0  1.377041106111861 0.6317460491860085 0  -1.433924877956976 0.4936429308938812 0  -1.511819287125857 -0.09399614269129589 0  1.293036694983634 -0.7857600736573691 0  1.515550171753627 0.05620099357459041 0  -1.293711430263812 -0.7862472954747678 0  -0.4891186531738728 -0.05898776107721038 0  0.4963424277228249 -0.0238256921148202 0  -0.3052174094775598 0.3955905608210902 0  0.2864437541005529 0.4100248783128465 0  0.1988000893582618 -0.3939952419721807 0  1.369907647449473 -0.3622936282773733 0  -0.2351922368624622 -0.4136663274386094 0  -1.289488799521124 -0.4142134946237677 0  -1.656864971173187 -0.4078365591059892 0  0.2514568966566933 1.680374613549842 0  -0.416287940484295 1.647718517304695 0  0.8806340433799242 1.454697324334564 0  -1.020093584984439 1.360661226981657 0  -0.7266787952757708 -1.53755348426625 0  1.37366001159338 1.003964797340519 0  -1.684061992653 0.2363198382192193 0  -1.466168668671008 0.8640670272607315 0  1.237323084864741 -1.147842189739411 0  -1.2595272761567 -1.143096077905573 0  1.653752327548659 0.4003127897070794 0  -0.08392355939143692 -1.711592113952966 0  1.597440595356684 -0.6171474684037576 0  1.70680086087864 -0.2631392644491398 0  0.7335550953235497 -1.551794503742536 0  0.01172722332781244 0.6257344493523256 0  -0.02118917781367036 -1.383004503565979 0  0.5116717010136841 -1.204005962332342 0  -0.6124794335604635 0.236223727622327 0  0.5210483787577839 -0.3551527698446359 0  -0.7860232183231809 1.035010639842317 0  -0.5443994183944088 -1.181994199041051 0  0.9773119449314843 -0.9200772310299641 0  0.1931789807401448 1.281358831281801 0  0.5963366992768954 0.277441711128905 0  1.276885161795147 0.2949143212312097 0  0.6953857310634498 1.07815037443723 0  -0.2609832356600111 1.240282494860526 0  -1.303235527828143 0.1687318267681936 0  1.004177871411907 0.7886189054863659 0  -0.9654695356973058 -0.8445766616216148 0  -1.135651781813064 0.6554079191355369 0  -1.598561246925061 -0.7600504159860022 0  -0.5539540342074012 -0.3606438185459188 0  -0.01030985428766631 -0.613029446998964 0  -0.007267087079215899 0.3279785269304071 0  0.2031654480770057 -1.753904317800055 0  0.4862233367132796 -1.699499517352975 0  -0.4345641065631502 -1.735302043516852 0  -0.5153501335546965 1.115843134964861 0  1.067201383845801 -1.437963645495431 0  0.5310528760661629 1.695401289625765 0  -0.1632736401454646 1.769556363195285 0  -0.832751903311024 1.570398316436068 0  1.118313693255734 0.5314953419250573 0  1.141419236912328 1.364736576427892 0  -0.7324305311908959 -0.9889666569861322 0  -0.2269698830219309 -1.206053526218679 0  -1.375779308154077 1.128393369552489 0  0.1889493482388238 -1.211571501244134 0  1.257976490054541 -0.1027396567824391 0  1.131462923370971 -0.545701667693698 0  -0.9951629749294528 -1.475905306263375 0  0.7011334987176409 -1.00947487909988 0  -1.078912952887675 -0.602586064531646 0  1.578284546521282 0.8248472204612567 0  -1.693789626619214 0.5948953951795773 0  -1.792470502324818 -0.09696272453604739 0  1.554590681843054 -0.8797560973404958 0  -1.235415085385312 -0.1557278197533479 0  1.782189633980687 -0.002000581127568929 0  0.429453202471669 1.141914571084355 0  -0.2605098545568114 0.6514150244901907 0  -0.02532847317229907 -0.2318720415983553 0  -1.482615232284563 -0.9971341749267905 0  -1.169635393540438 0.3915624240425379 0  -0.9425186899924761 0.8266056018198815 0  -0.7284381730705272 4.630964986753155e-05 0  -0.2316047587001157 -0.08056266939028103 0  0.7193014711264403 -0.1476638225024904 0  -0.2178080169889452 0.166935055564098 0  0.2724349547261465 0.6584872850987848 0  -0.5415927390951724 0.4803223552080194 0  0.3833759203576267 -0.5637560306410333 0  0.2373068460303137 -0.1183444600138489 0  0.2708064657204857 0.145552022222899 0  0.5110783042723116 0.5148938568438628 0  -0.2295755547615152 -0.6567489004375993 0  -1.427612206234014 -0.5987318132684989 0  -0.4211598813860862 -0.5477596040911018 0  0.0911585637822612 1.8449949592715 0  -0.6253122162651553 1.738335322806327 0  -0.03542040684409593 1.282282530278714 0  0.7645044992321987 1.662875797091498 0  -1.245587490641862 1.364821413368132 0  1.374144034561656 1.235961028454326 0  -1.241891653041934 -1.368823575865443 0  1.714027095478269 0.6335015263467018 0  1.813158446806688 0.2326120864838264 0  0.5229196541993217 -1.440706571664309 0  1.15146515921
[...]
<PointData  Vectors="f_1537-0"> 
<DataArray  type="Float64"  Name="f_1537-0"  NumberOfComponents="3" format="ascii">-1.6408279671729243e-02 -1.0396327732754776e-01 0.0000000000000000e+00  5.3754387565438299e-03 -1.1789822079902447e-01 0.0000000000000000e+00  3.0377170992756344e-02 -1.2848180081576716e-01 0.0000000000000000e+00  5.6663041905911572e-02 -1.3366279669637907e-01 0.0000000000000000e+00  8.5077303155448328e-02 -1.3613055581609537e-01 0.0000000000000000e+00  1.1042413597733093e-01 -1.2994145058110984e-01 0.0000000000000000e+00  1.2742746484322820e-01 -1.1237086741498152e-01 0.0000000000000000e+00  1.3340749965900625e-01 -8.6457610992578537e-02 0.0000000000000000e+00  1.3016875975349668e-01 -5.8410852836270649e-02 0.0000000000000000e+00  1.2000093966023523e-01 -3.1733130506260913e-02 0.0000000000000000e+00  1.0600065651118219e-01 -8.5068115090299462e-03 0.0000000000000000e+00  8.7067386824549967e-02 1.0940325463875165e-02 0.0000000000000000e+00  6.5783874730812555e-02 2.6001309751469397e-02 0.0000000000000000e+00  4.2563706459797769e-02 3.6695897271250139e-02 0.0000000000000000e+00  1.7321061150253642e-02 4.2328243521450759e-02 0.0000000000000000e+00  -9.3756418408391055e-03 4.2952326971106264e-02 0.0000000000000000e+00  -3.4449504201927432e-02 3.8812329327748994e-02 0.0000000000000000e+00  -5.8465335984724580e-02 2.9311137707631017e-02 0.0000000000000000e+00  -8.0604686253655508e-02 1.5600830262515950e-02 0.0000000000000000e+00  -1.0018996887874086e-01 -2.6966477923571655e-03 0.0000000000000000e+00  -1.1660835549523817e-01 -2.5495744049601497e-02 0.0000000000000000e+00  -1.2889393401502122e-01 -5.1586741544445799e-02 0.0000000000000000e+00  -1.3490861680385344e-01 -7.9358092441423347e-02 0.0000000000000000e+00  -1.3210398397722650e-01 -1.0650875976651540e-01 0.0000000000000000e+00  -1.1808296221504147e-01 -1.2677326537553640e-01 0.0000000000000000e+00  -9.4411039874732317e-02 -1.3659712910879121e-01 0.0000000000000000e+00  -6.6112604254536494e-02 -1.3706302366634310e-01 0.0000000000000000e+00  -3.8059743478876779e-02 -1.3122483783084943e-01 0.0000000000000000e+00  -1.2421254090758383e-02 -1.2304194984958286e-01 0.0000000000000000e+00  1.0759621215327692e-02 -1.1022591135704106e-01 0.0000000000000000e+00  3.0411133167865204e-02 -9.5319665956053692e-02 0.0000000000000000e+00  4.6515138647232862e-02 -7.9532035807177187e-02 0.0000000000000000e+00  5.9580047902737902e-02 -6.4110223389793414e-02 0.0000000000000000e+00  6.8330718740719623e-02 -4.4315021102438491e-02 0.0000000000000000e+00  7.4811549422942825e-02 -2.8015028254768350e-02 0.0000000000000000e+00  7.7144189609137381e-02 -9.9144891888495318e-03 0.0000000000000000e+00  7.7507622633284132e-02 5.9934903536452370e-03 0.0000000000000000e+00  7.3972871536736248e-02 2.2173951876740261e-02 0.0000000000000000e+00  6.7203293336585146e-02 3.7070764666175600e-02 0.0000000000000000e+00  5.8913916284736419e-02 4.9273046878194796e-02 0.0000000000000000e+00  4.7786765430936698e-02 5.9805466912454842e-02 0.0000000000000000e+00  3.6605969626064640e-02 6.7404019647697017e-02 0.0000000000000000e+00  2.3871731408677037e-02 7.2994453602764256e-02 0.0000000000000000e+00  8.3785120354252073e-03 7.6164257681067202e-02 0.0000000000000000e+00  -4.1495141829020329e-03 7.6671446815342617e-02 0.0000000000000000e+00  -1.9611738247894125e-02 7.4444317565783361e-02 0.0000000000000000e+00  -3.2934630360602700e-02 6.9638441832346423e-02 0.0000000000000000e+00  -4.5060460141803038e-02 6.2414917163545962e-02 0.0000000000000000e+00  -5.5606858166162676e-02 5.2843096288018143e-02 0.0000000000000000e+00  -6.5654385083435005e-02 4.0274917293208874e-02 0.0000000000000000e+00  -7.2461416948096394e-02 2.6441747535676290e-02 0.0000000000000000e+00  -7.5298042023800374e-02 1.2675947848028725e-02 0.0000000000000000e+00  -7.6771158544692089e-02 -3.5275564303851800e-03 0.0000000000000000e+00  -7.5796484708598719e-02 -2.1737739066395034e-02 0.0000000000000000e+00  -7.1430875591532120e-02 -4.0743394855922668e-02 0.0000000000000000e+00  -6.2280688022549664e-02 -5.6453694873501561e-02 0.0000000000000000e+00  -5.0796759941555948e-02 -7.4646466839666331e-02 0.0000000000000000e+00  -3.5227067384782852e-02 -9.0500624152041104e-02 0.0000000000000000e+00  1.1788880043391337e-01 9.9055050204672622e-04 0.0000000000000000e+00  1.1735619902484155e-01 1.1547137067148251e-02 0.0000000000000000e+00  1.1582134940048340e-01 2.2025278148637435e-02 0.0000000000000000e+00  1.1252681633578060e-01 3.5185790781924541e-02 0.0000000000000000e+00  1.0900660436186420e-01 4.5009621739474127e-02 0.0000000000000000e+00  1.0401969675477729e-01 5.5603614272158437e-02 0.0000000000000000e+00  9.8073242686338574e-02 6.5521220379245987e-02 0.0000000000000000e+00  9.1188227231958699e-02 7.4820460449360429e-02 0.0000000000000000e+00  8.3404651721400713e-02 8.3402066426042976e-02 0.0000000000000000e+00  7.4839638298868402e-02 9.1176737274812847e-02 0.0000000000000000e+00  6.5535731566389060e-02 9.8075572734810074e-02 0.0000000000000000e+00  5.5614978684652254e-02 1.0403054486393350e-01 0.0000000000000000e+00  4.5139518792934860e-02 1.0897948970961953e-01 0.0000000000000000e+00  3.4261186221919405e-02 1.1288230179520113e-01 0.0000000000000000e+00  2.2887319071151088e-02 1.1571243646238007e-01 0.0000000000000000e+00  1.2577615251231659e-02 1.1724926068297942e-01 0.0000000000000000e+00  -1.0205000511482197e-03 1.1791775741027256e-01 0.0000000000000000e+00  -1.1423660075781602e-02 1.1740494433880072e-01 0.0000000000000000e+00  -2.3155026086121397e-02 1.1566263467056780e-01 0.0000000000000000e+00  -3.3250595368435075e-02 1.1313455678479233e-01 0.0000000000000000e+00  -4.6069162258694875e-02 1.0854882706273113e-01 0.0000000000000000e+00  -5.5496447678036485e-02 1.0408194262518047e-01 0.0000000000000000e+00  -6.5553036142752694e-02 9.8066900184144101e-02 0.0000000000000000e+00  -7.4833416936125816e-02 9.1182702786824305e-02 0.0000000000000000e+00  -8.3412624985750528e-02 8.3394702607106963e-02 0.0000000000000000e+00  -9.1182963054022112e-02 7.4823688580770126e-02 0.0000000000000000e+00  -9.8071063303399236e-02 6.5532391121764441e-02 0.0000000000000000e+00  -1.0407652049013422e-01 5.5474002901187418e-02 0.0000000000000000e+00  -1.0853089694327264e-01 4.6063427893027746e-02 0.0000000000000000e+00  -1.1270211263181931e-01 3.4176731165679632e-02 0.0000000000000000e+00  -1.1585371535115346e-01 2.1800531091385814e-02 0.0000000000000000e+00  -1.1719323894484464e-01 1.2752941672651263e-02 0.0000000000000000e+00  -1.1776021005127621e-01 -2.6970567700433745e-06 0.0000000000000000e+00  -1.1722124655407007e-01 -1.2571100634064547e-02 0.0000000000000000e+00  -1.1564670885875782e-01 -2.3006385815319812e-02 0.0000000000000000e+00  -1.1309987417116252e-01 -3.3263325571392714e-02 0.0000000000000000e+00  -1.0852215227215060e-01 -4.6056887992084510e-02 0.0000000000000000e+00  -1.0405878980019338e-01 -5.5478530267973773e-02 0.0000000000000000e+00  -9.8066532307282406e-02 -6.5525330635512136e-02 0.0000000000000000e+00  -9.1081133944790005e-02 -7.4909631076324590e-02 0.0000000000000000e+00  -8.4091776970030438e-02 -8.2639963328635213e-02 0.0000000000000000e+00  -7.4026836972934981e-02 -9.1773875419089240e-02 0.0000000000000000e+00  -6.5526047021006006e-02 -9.8055097360211257e-02 0.0000000000000000e+00  -5.6458817260052724e-02 -1.0352965237998162e-01 0.0000000000000000e+00  -4.4172113502820437e-02 -1.0932434699102660e-01 0.0000000000000000e+00  -3.4380523849903560e-02 -1.1282541321375993e-01 0.0000000000000000e+00  -2.2872665906181880e-02 -1.1571664252158582e-01 0.0000000000000000e+00  -1.2566178216132939e-02 -1.1724293121944912e-01 0.0000000000000000e+00  1.1993485204650337e-03 -1.1790116080427800e-01 0.0000000000000000e+00  1.0371024327338886e-02 -1.1744916430763155e-01 0.0000000000000000e+00  2.4005737817585564e-02 -1.1544951132103605e-01 0.0000000000000000e+00  3.4120677181060613e-02 -1.1290361945950252e-01 0.0000000000000000e+00  4.5154754214560569e-02 -1.0897201836455367e-01 0.0000000000000000e+00  5.5605091564625515e-02 -1.0402170816970455e-01 0.0000000000000000e+00  6.5525514555855952e-02 -9.8071760507801295e-02 0.0000000000000000e+00  7.4832162279617156e-02 -9.1171554114935216e-02 0.0000000000000000e+00  8.3390101786003271e-02 -8.3406549245901573e-02 0.0000000000000000e+00  9.1243264500391261e-02 -7.4721904194226876e-02 0.0000000000000000e+00  9.7463006517507028e-02 -6.6330814943799735e-02 0.0000000000000000e+00  1.0444488178291908e-01 -5.4676262752122666e-02 0.0000000000000000e+00  1.0889742450290939e-01 -4.5241731789160591e-02 0.0000000000000000e+00  1.1285747935577660e-01 -3.4242613489015437e-02 0.0000000000000000e+00  1.1567783314836275e-01 -2.2882740587609748e-02 0.0000000000000000e+00  1.1721793102941393e-01 -1.2568328059636900e-02 0.0000000000000000e+00  1.3708011933812587e-04 1.7185664086194022e-01 0.0000000000000000e+00  5.6050484931168418e-02 7.6746333346624077e-02 0.0000000000000000e+00  -8.0589432958958918e-03 9.2131534484997238e-02 0.0000000000000000e+00  -6.9540304839663336e-02 6.8018847654801415e-02 0.0000000000000000e+00  -1.0304248517718691e-02 -7.9176985167342076e-02 0.0000000000000000e+00  -1.0311147357896877e-01 1.5062261106285597e-02 0.0000000000000000e+00  9.8872687268529866e-02 2.9819336702787271e-02 0.0000000000000000e+00  8.8445045339701819e-03 -7.9098427612843664e-02 0.0000000000000000e+00  -3.4110830921539638e-02 -7.3604638065591407e-02 0.0000000000000000e+00  3.2376371684768881e-02 -7.4079256714733685e-02 0.0000000000000000e+00  1.0312869239848935e-01 -2.8924763069587262e-02 0.0000000000000000e+00  -9.8585220985509980e-02 -4.1899066080662420e-02 0.0000000000000000e+00  -6.2389208570986267e-02 -7.1268006827398755e-02 0.0000000000000000e+00  3.5351696770423373e-02 -6.0835641546884728e-02 0.0000000000000000e+00  7.3433871192162589e-02 -6.7233703614787935e-02 0.0000000000000000e+00  -3.6030786865131656e-02 -6.1051366544856052e-02 0.0000000000000000e+00  -4.0973648133509254e-02 7.9282034121667247e-02 0.0000000000000000e+00  4.4972999062446603e-02 7.7046384313225427e-02 0.0000000000000000e+00  -4.2124564079471766e-02 1.0716615014884573e-01 0.0000000000000000e+00  3.9607687333058771e-02 1.0913264475390462e-01 0.0000000000000000e+00  -1.1009085258744779e-02 1.6400666697598204e-01 0.0000000000000000e+00  2.2225020993866883e-02 -7.9344436911996996e-02 0.0000000000000000e+00  1.5066935383993962e-02 1.5408301407993857e-01 0.0000000000000000e+00  -1.4874277600725582e-03 -8.5185689811989013e-02 0.0000000000000000e+00  -8.2304509171563095e-02 -5.4658091305369215e-02 0.0000000000000000e+00  2.4615030139968470e-02 1.0436355861664647e-01 0.0000000000000000e+00  -4.0071181197199698e-02 1.0012478770619689e-01 0.0000000000000000e+00  8.1097635792016287e-02 7.4986195080963172e-02 0.0000000000000000e+00  -9.1616447185303290e-02 6.3172377028315033e-02 0.0000000000000000e+00  -4.4028557607362330e-02 -9.3549331556093129e-02 0.0000000000000000e+00  1.1177479205987471e-01 2.3176827134522394e-02 0.0000000000000000e+00  -1.0447489649954600e-01 -3.7536962699613541e-02 0.0000000000000000e+00  -1.1454179814588807e-01 9.8029923514297325e-03 0.0000000000000000e+00  6.9447663098055279e-02 -6.7914584912989642e-02 0.0000000000000000e+00  -7.1527915486341437e-02 -6.7545060300944704e-02 0.0000000000000000e+00  1.0931070242225889e-01 -2.7411042291177176e-02 0.0000000000000000e+00  -4.6594638920827523e-03 -1.0309257246559381e-01 0.0000000000000000e+00  7.8762647157062660e-02 -5.5510923923123852e-02 0.0000000000000000e+00  9.0558543029434127e-02 -5.1323194131697454e-02 0.0000000000000000e+00  4.5324748652483815e-02 -9.4255853645377696e-02 0.0000000000000000e+00  2.1668277021167160e-03 1.0776157793824881e-01 0.0000000000000000e+00  8.2842689074520263e-06 -5.8675232494668342e-02 0.0000000000000000e+00  -1.1605949804640055e-02 -5.8977060474293116e-02 0.0000000000000000e+00  -6.4178268107814837e-02 3.6421427516536660e-02 0.0000000000000000e+00  -1.7901168279004186e-02 5.1025551460410837e-02 0.0000000000000000e+00  -8.4491869005368161e-02 2.6462328860709209e-02 0.0000000000000000e+00  1.4520276710580303e-02 -6.0646475028974266e-02 0.0000000000000000e+00  -4.5225020191415324e-03 -7.0920055829884740e-02 0.0000000000000000e+00  2.3940371006840062e-02 7.4836490802262873e-02 0.0000000000000000e+00  6.4796613422127697e-02 4.1344652647781650e-02 0.0000000000000000e+00  6.7608573909793204e-02 -7.4169592099834605e-02 0.0000000000000000e+00  7.6716532630713277e-02 3.7119494598406362e-02 0.0000000000000000e+00  -3.2305875218085173e-02 6.9818237823728119e-02 0.0000000000000000e+00  -5.6005566320047863e-02 -8.2651859295966912e-02 0.0000000000000000e+00  9.1946695890214966e-02 -1.3411236632169268e-02 0.0000000000000000e+00  2.4872269861925419e-02 -7.6344766898020819e-02 0.0000000000000000e+00  -9.4414405727400258e-02 -3.2699708650571702e-02 0.0000000000000000e+00  -8.6522165466607057e-02 -5.4688018007012625e-02 0.0000000000000000e+00  2.1109409816178783e-02 2.9520281100622898e-02 0.0000000000000000e+00  1.5753905166701881e-03 1.4497253009559041e-01 0.0000000000000000e+00  -8.6510468162977335e-04 1.4095197615868349e-01 0.0000000000000000e+00  1.2483971533867960e-02 -1.0728265915968213e-01 0.0000000000000000e+00  3.0643130767839043e-02 -1.0435982468421158e-01 0.0000000000000000e+00  -2.7120447470071120e-02 -1.0673435188502141e-01 0.0000000000000000e+00  -6.0144419063191679e-02 5.1801467683038165e-02 0.0000000000000000e+00  6.8712889420642326e-02 -8.5775536246371409e-02 0.0000000000000000e+00  4.7312091429284692e-02 1.0198882671941807e-01 0.0000000000000000e+00  -1.4571000894957107e-02 1.1082786904949232e-01 0.0000000000000000e+00  -7.2427575850501649e-02 8.7636024167162513e-02 0.0000000000000000e+00  8.1843933489730805e-02 -4.9992721750962879e-02 0.0000000000000000e+00  9.5011334751813517e-02 6.5148657162737711e-02 0.0000000000000000e+00  4.0534481867814408e-02 -7.1281674793692767e-02 0.0000000000000000e+00  1.3852301672277542e-02 -3.6400851782176821e-02 0.0000000000000000e+00  -1.0858285895103763e-01 4.1486545013029591e-02 0.0000000000000000e+00  -1.3058400983710037e-02 -3.5100448371822780e-02 0.0000000000000000e+00  1.8852821734910121e-02 -9.9886477971106613e-02 0.0000000000000000e+00  -3.4434168980991435e-02 -9.2470514700621315e-02 0.0000000000000000e+00  -6.4218069546571221e-02 -8.8639971763582473e-02 0.0000000000000000e+00  -3.8638802522417831e-02 -6.9344007914555944e-02 0.0000000000000000e+00  4.4728627541452466e-02 -9.3062789086500258e-02 0.0000000000000000e+00  1.1591475825254968e-01 1.3878444883584534e-02 0.0000000000000000e+00  -1.1690199791546851e-01 -2.4859742499785866e-03 0.0000000000000000e+00  -1.0418409752671635e-01 -3.9507262984633432e-02 0.0000000000000000e+00  8.7087643039435253e-02 -5.7265947378454307e-02 0.0000000000000000e+00  -7.6899989790393973e-03 -1.0305083476758754e-01 0.0000000000000000e+00  1.0549241228891056e-01 -3.7299191484827666e-02 0.0000000000000000e+00  5.1706940031148778e-02 5.6572799875305238e-02 0.0000000000000000e+00  -3.6671940174333555e-02 9.1129165276936874e-02 0.0000000000000000e+00  -1.5096146433267585e-03 1.8723870350442909e-01 0.0000000000000000e+00  -8.5892403924172647e-02 -6.0722681140968467e-02 0.0000000000000000e+00  -7.1931209788476488e-02 -6.6524953898200914e-02 0.0000000000000000e+00  -9.0630217401919289e-02 -6.1367740830089498e-03 0.0000000000000000e+00  -4.2071279055541921e-02 -1.9813346294663397e-02 0.0000000000000000e+00  -2.2589279053986354e-02 1.5836297407237998e-01 0.0000000000000000e+00  1.9743682014219100e-02 -3.6155452412266670e-02 0.0000000000000000e+00  -2.9606563573312410e-02 1.4191559259793859e-01 0.0000000000000000e+00  3.8465701718514940e-02 9.0403626477974758e-02 0.0000000000000000e+00  -6.5469556628480502e-02 5.4950251709139801e-02 0.0000000000000000e+00  -6.9223492055446839e-02 8.3179481213106046e-02 0.0000000000000000e+00  2.0123144142092955e-02 1.5962923687092825e-01 0.0000000000000000e+00  3.5629775944661372e-02 1.3468607711728492e-01 0.0000000000000000e+00  6.2978092094039664e-02 5.7984173634631778e-02 0.0000000000000000e+00  5.4205302869297346e-02 1.0730745815868212e-01 0.0000000000000000e+00  -4.4784797610004728e-02 -6.2476874950285269e-02 0.0000000000000000e+00  7.1104344694937621e-02 6.8774249433679643e-02 0.0000000000000000e+00  7.6750821938712244e-03 1.1470099528293443e-01 0.0000000000000000e+00  -5.0989998695643586e-02 1.0372648914201328e-01 0.0000000000000000e+00  -3.3841620184941221e-03 7.7241154005204676e-02 0.0000000000000000e+00  6.3088597147465036e-02 9.6441460429065234e-02 0.0000000000000000e+00  -9.5687525599686227e-02 6.7229266808140176e-02 0.0000000000000000e+00  1.0363965967766998e-01 5.5397005943418620e-02 0.0000000000000000e+00  -7.9656203148549168e-02 -8.0141810084780454e-02 0.0000000000000000e+00  1.1719982849374139e-01 4.7945892659860918e-03 0.0000000000000000e+00  1.1388708717685696e-01 -2.0051712436490732e-02 0.0000000000000000e+00  2.0938385211267944e-02 -8.1902878933509185e-02 0.0000000000000000e+00  -2.5166580030872823e-02 -1.1112430078024370e-01 0.0000000000000000e+00  5.5929161253160026e-02 -7.2845786501257864e-02 0.0000000000000000e+00  2.8401163976582874e-02 -6.6960835207182989e-02 0.0000000000000000e+00  -4.6871459780551468e-02 7.9518692406509758e-02 0.0000000000000000e+00  5.3420082496024111e-02 -1.9901675035947364e-02 0.0000000000000000e+00  2.0971954020057929e-03 -1.6211493710339735e-02 0.0000000000000000e+00  3.4036580018351856e-03 -8.7537198286870899e-02 0.0000000000000000e+00  1.0285431170170480e-01 -4.4080188622060867e-02 0.0000000000000000e+00  1.0469894932868186e-01 5.6913469132152178e-03 0.0000000000000000e+00  8.9633536122320431e-02 -6.4727353204272517e-02 0.0000000000000000e+00  -3.8882956532342153e-02 1.2788856187018977e-01 0.0000000000000000e+00  -6.8630787192290044e-02 -9.7352422110135270e-02 0.0000000000000000e+00  -1.4785300510211041e-02 1.1992860827062392e-01 0.0000000000000000e+00  9.0999206764527621e-02 1.4239654403422300e-02 0.0000000000000000e+00  7.5631796207576527e-02 6.0008533864975476e-02 0.0000000000000000e+00  -3.1900128780002597e-02 -6.6950993019472896e-02 0.0000000000000000e+00  -8.2363614898234934e-05 -4.7578512846695335e-02 0.0000000000000000e+00  2.7335934227482039e-02 -7.8244238973387725e-02 0.0000000000000000e+00  9.9342844377556291e-02 -2.2951168467605081e-02 0.0000000000000000e+00  -5.1618178903720585e-02 9.7120188289455817e-02 0.0000000000000000e+00  1.6425472501602856e-02 9.0648292255715024e-02 0.0000000000000000e+00  -9.4826475689086032e-02 3.4564005635988222e-02 0.0000000000000000e+00  -1.0125012465605289e-01 -4.7855514186304085e-02 0.0000000000000000e+00  4.9781983863340706e-02 -8.6371915232130100e-02 0.0000000000000000e+00  3.2538006633716997e-02 -1.1645665348398068e-01 0.0000000000000000e+00  -2.8093288861092310e-02 -9.2750225900580158e-02 0.0000000000000000e+00  -2.5575805955968003e-02 -7.7576633158179725e-02 0.0000000000000000e+00  -1.7671534825547539e-02 1.1924686629154031e-01 0.0000000000000000e+00  -1.7281940190191608e-02 -1.1322110953151228e-01 0.0000000000000000e+00  -4.0569394188231092e-02 -1.0735620333712052e-01 0.0000000000000000e+00  -1.0540116810116791e-01 -2.3792112142092078e-02 0.0000000000000000e+00  6.2655903683098299e-02 -9.6203260579633423e-02 0.0000000000000000e+00  8.0481535531349291e-02 -8.1129136451394745e-02 0.0000000000000000e+00  9.4828598576799747e-02 -4.7400021491435483e-02 0.0000000000000000e+00  -4.6061688932909496e-02 -7.2321251017373772e-02 0.0000000000000000e+00  -1.1578583993599766e-01 2.2782657400997119e-02 0.0000000000000000e+00  -1.1706338168354473e-01 -6.3724352696250802e-03 0.0000000000000000e+00  8.0540857259938536e-02 -6.3211255108816866e-02 0.0000000000000000e+00  -1.1333124846524249e-01 -2.3257872768162803e-02 0.0000000000000000e+00  -1.0792517976628162e-01 -3.6177007925113851e-02 0.0000000000000000e+00  -1.0529753762613205e-01 -7.5120280627070900e-03 0.0000000000000000e+00  -8.7124287371063314e-02 -5.7293533038364181e-02 0.0000000000000000e+00  -7.8722587368147801e-02 -6.3695445896758518e-02 0.0000000