<?xml version="1.0"?>
<VTKFile type="UnstructuredGrid"  version="0.1"  >
<UnstructuredGrid>
<Piece  NumberOfPoints="1025" NumberOfCells="1947">
<Points>
<DataArray  type="Float64"  NumberOfComponents="3"  format="ascii">-1.002656602384889 0.08447139424565128 0  -0.9949779775718873 -0.02590943720146015 0  -0.97443540296702 -0.1344330025222924 0  -0.941478101961171 -0.2397257717367091 0  -0.8962648309829936 -0.341169516799347 0  -0.8397902160191879 -0.4364157420699062 0  -0.7739017758837395 -0.5234264031025613 0  -0.7000179164313157 -0.6010500439595994 0  -0.6207159257442612 -0.6682811429983988 0  -0.5380321608654053 -0.7248828162321457 0  -0.4514609305027211 -0.7723290217259072 0  -0.3613935807859492 -0.8108951630112925 0  -0.2675252052725125 -0.8408601013935266 0  -0.1715953383373642 -0.8615028672160682 0  -0.07383670660697274 -0.8730466432223363 0  0.02431945345769224 -0.8754037634915789 0  0.1220555284727234 -0.8683814112014347 0  0.2188578876024705 -0.8521581540771336 0  0.3135768957861489 -0.8267941668738719 0  0.4051784770874637 -0.7925549312864605 0  0.4943733704127876 -0.7489842141512556 0  0.5790642368489993 -0.6967960166356335 0  0.6590179413808714 -0.6358167219134828 0  0.7355244878242054 -0.5638001779507512 0  0.8059758605657253 -0.4812884746980584 0  0.8675352477605199 -0.3903240235417927 0  0.9188361641856695 -0.2918711583836974 0  0.9582076561843988 -0.1881759811289003 0  0.9849987591985779 -0.08152481350572319 0  0.9993648637625672 0.02811461959889627 0  1.000956956742912 0.137913138958047 0  0.989695507330163 0.2470541548651129 0  0.9658684464814573 0.3545675427033707 0  0.930220636145629 0.4578868464067309 0  0.8829633437812512 0.5568687760057811 0  0.82489228077031 0.6496790469104095 0  0.7561247910056869 0.7360935346564048 0  0.6787927520881792 0.8137265591309772 0  0.5930620954911613 0.882412507539265 0  0.5008144901294979 0.9411796858689151 0  0.4021569751129633 0.9900302220178074 0  0.2982411020272137 1.027878429370932 0  0.1918877447814038 1.054173990095977 0  0.08293010831367789 1.068927816405134 0  -0.02744541364334141 1.071948068639824 0  -0.1372850443761948 1.062913875207103 0  -0.2452131520173741 1.042390957606596 0  -0.3500168808071293 1.010341474944253 0  -0.4511911813525177 0.9671851557168469 0  -0.5466896504814734 0.9136317964914802 0  -0.6363458359791181 0.849533398568898 0  -0.7183109115881368 0.7760116784505028 0  -0.7912298197345613 0.6945222117910889 0  -0.8545199243867657 0.605344386371273 0  -0.907916528486769 0.509017638155996 0  -0.9498012450952813 0.4081940939528726 0  -0.979838419723578 0.3027969961797345 0  -0.9976619970928742 0.1939973405995033 0  2.239496847619264 3.584507107367779e-05 0  2.230495359876743 0.2004920101524261 0  2.203454414017343 0.4001230466224063 0  2.158803523797832 0.595753436911958 0  2.096686953882637 0.7869350569575557 0  2.017821987887564 0.971448380273254 0  1.922465586095555 1.148612875675001 0  1.811761134844297 1.316324752549946 0  1.686330669965977 1.473639234769914 0  1.547660641113318 1.61867718462663 0  1.39631001062512 1.750915821924103 0  1.233708810961157 1.869045501597188 0  1.061449045081499 1.971968206919948 0  0.8799024908132996 2.059391366128047 0  0.6923278779672645 2.12978992154568 0  0.4983352171939156 2.183324135570661 0  0.3006107853675649 2.219196770114416 0  0.1004682318221373 2.237211274006521 0  -0.1007706864181487 2.237224884770311 0  -0.3003199576059163 2.219264631652309 0  -0.4983257200904133 2.183325178387784 0  -0.692326854378655 2.129790768988576 0  -0.8799007067246175 2.059392828737449 0  -1.06121186364958 1.972061994122878 0  -1.233944139416882 1.868879824920075 0  -1.396283174640756 1.750933464925026 0  -1.547641365134886 1.618697832286076 0  -1.686507839021081 1.473454301413319 0  -1.811795426940597 1.316345169110326 0  -1.922498320576687 1.148641607203071 0  -2.017733923563156 0.9716515491048113 0  -2.09660013452442 0.7871349350174067 0  -2.158861794157752 0.595497275208327 0  -2.203443147546768 0.4001694752438375 0  -2.230443381849442 0.200748634505453 0  -2.239468542573736 -8.012397986874261e-06 0  -2.230442678161488 -0.2010454732755464 0  -2.203549695488048 -0.3995810246649917 0  -2.158752526448444 -0.5957788205853326 0  -2.096579219099453 -0.7871803632673632 0  -2.01783589321112 -0.9714087592776056 0  -1.922356040433836 -1.148848596267627 0  -1.81181518337868 -1.316315224193688 0  -1.686479805723667 -1.473479862833943 0  -1.54780739432855 -1.618515822474795 0  -1.396069016657754 -1.751085881378718 0  -1.233978106988413 -1.868854129866689 0  -1.061210048711555 -1.972059317626668 0  -0.8799002334769277 -2.059391071513936 0  -0.6923241659383053 -2.129790276247174 0  -0.4980934560357023 -2.18340018886897 0  -0.3006171736644556 -2.219233145734171 0  -0.1007191622077626 -2.237228407522495 0  0.1007712012634575 -2.237223095141472 0  0.3003215843386423 -2.219263387633244 0  0.4985796771737675 -2.183288641317719 0  0.692012000817103 -2.129905495813539 0  0.8802134046010144 -2.059270579201355 0  1.061005103804146 -1.972207209563418 0  1.233935783676663 -1.868886761855633 0  1.396306112244962 -1.750909875344534 0  1.547451143204518 -1.618863024062716 0  1.686663282090803 -1.473255662185043 0  1.811772529074471 -1.31637241222726 0  1.922512719864286 -1.148607552240175 0  2.017600625583485 -0.9719040467809961 0  2.096658012971584 -0.7868933168237194 0  2.158755423190247 -0.5957743084506002 0  2.203543528857178 -0.3996242004774826 0  2.230479959371701 -0.200784230736302 0  4.914300686825491e-05 0.1224757416929293 0  0.1342664338181982 -1.56248531067757 0  -0.5563451871795465 -1.470291710676999 0  0.7919373505807613 -1.362022808632469 0  -1.144850320094745 -1.097454397172115 0  1.326524477716114 -0.8805720750171466 0  -1.522902465136273 -0.5044507712010218 0  1.591420825182124 -0.2486040614058959 0  -1.614198885888561 0.1926144998271609 0  1.566901020356429 0.4520797328988227 0  -1.39919947942948 0.8565328679723503 0  1.296948638750885 1.016768427961787 0  0.7090777106643834 1.493140523170346 0  -0.9804636760961228 1.331497453322073 0  -0.3004505784452053 1.628459497962871 0  -0.5042927888299886 0.03321370912450389 0  0.5098420773923465 0.1082306325794138 0  0.2041568190820384 1.555425998838686 0  -0.3085256563748641 0.496264226855623 0  0.2494114316449943 -0.3005421229259773 0  0.2512942681850182 0.5320571604592236 0  -0.2368041265843651 -0.3363437910523566 0  1.233552261784278 -1.308852203621921 0  0.5438868677203178 -1.720855924034697 0  -0.3297990617063418 -1.812334330839296 0  -0.9491181512421691 -1.584091169096942 0  -1.542508418090345 -1.017864984935465 0  1.844564505548407 0.07347079008657546 0  1.690272998813895 -0.6555479783421442 0  -1.837354571264735 -0.2560253742127279 0  -1.723266746939518 0.6001338530262191 0  1.131152982068944 1.417402635120165 0  0.8664164318359582 1.141871618964603 0  -0.1828142360479077 -1.287304702197247 0  -0.006913214825746724 1.873162828016351 0  0.9149288318168426 -0.9723045100833295 0  0.3914797678822895 -1.244450153114879 0  -0.7280141834376859 -1.099566200908794 0  -0.7219383144771445 1.671106828472632 0  -0.5472046665109622 1.331354699012597 0  1.650644765290217 0.8759263406732156 0  -1.35869244177567 1.285708013713038 0  -1.153740979182407 -0.6877984101742997 0  0.4888533638435353 1.806761424091727 0  1.262570673830842 -0.4931259810014274 0  -1.480619314433753 -0.1496728522549316 0  1.468779224531704 0.0922811863330338 0  -1.355408230361189 0.4694182130602572 0  -1.755921412735379 -0.7558343482166383 0  0.171766570931546 -1.905409887748209 0  -0.6691028937819584 -1.793511302859042 0  0.985087191454832 -1.644158899236415 0  1.251427956150144 0.6420031591584301 0  -1.015314096778373 0.9702764627991103 0  -1.918388896962817 0.06341956635483284 0  -1.401174466998936 -1.313185675673143 0  -0.0432692121558245 0.7300135414293271 0  -0.6212865083162948 0.3437039410619218 0  0.5731822671228389 -0.2311919811735598 0  1.525210423681083 -1.151908859398566 0  1.884368356703902 0.3942175602763718 0  0.5783562608246415 0.4384932655253946 0  -1.218185214707563 -0.3870021219968176 0  1.917462930519387 -0.2651789538101752 0  1.275419236179417 -0.188579405907062 0  0.4328742458518637 1.319658015619927 0  -0.07824468348543274 1.389337143441051 0  -1.301049490593661 0.1622528181531595 0  -1.598804333262121 1.096205959710388 0  1.282141511111564 0.3268784066656204 0  -0.5777700221506202 -0.2770394867347759 0  0.01987788104938818 -0.5281869738160428 0  1.025800808103195 -0.6948851571038316 0  -0.9247145245661319 -0.8803686518179957 0  0.612703566916437 -1.044211718185766 0  -1.149283104271898 0.6844660624586493 0  0.9575256895354884 1.680325038741569 0  1.023671390242534 0.8775397226487452 0  1.424017598741201 1.309308939235568 0  -1.195397223897295 1.537063689365268 0  -0.300044798294684 1.925750542175371 0  0.09703585423058861 -1.184401258570378 0  -0.4238319880944261 -1.117725069066684 0  -0.7654734309220369 1.128986720165081 0  -1.869643120214468 0.350037301221811 0  -0.02148773255413389 0.409771370162218 0  1.721749116864487 -0.9411957618843265 0  1.84123204516423 0.6725937521077358 0  -0.1537120407842513 -1.579215136441529 0  -1.225047391704245 -1.531315605099475 0  -0.7985848602324804 -1.358867214709778 0  -0.005171556053789279 -0.1621604296476795 0  -0.2377484249979377 -0.02051704301215355 0  -0.2418895560015683 0.2431896883579548 0  -1.433155957749937 -0.7616332838945645 0  -0.7475148906499298 0.1059434415740341 0  0.7514060536343053 0.1738091444868168 0  0.2174271578597041 0.7856912122029435 0  -1.786871983838048 -0.5046177759129354 0  -0.3792868731948968 0.731564330593349 0  -0.07285930546746061 -1.825270803521801 0  0.2569066163877063 -0.5622223044898141 0  -1.763030591357991 0.8764316731386913 0  0.2550138019210603 0.2533049988234494 0  0.2459879921521598 -0.02118687396961001 0  0.171013289880813 1.303643481552946 0  0.4632644792124511 0.6699305239299412 0  -1.225898124588898 -0.1138258471643249 0  0.2366004385891413 1.805098043113047 0  0.5502154004931505 -1.458272042923026 0  -0
[...]
<PointData  Vectors="f_2515-0"> 
<DataArray  type="Float64"  Name="f_2515-0"  NumberOfComponents="3" format="ascii">-1.5292047701383302e-02 -7.5210991805173461e-02 0.0000000000000000e+00  2.3344651501815980e-03 -8.8501561416431979e-02 0.0000000000000000e+00  2.2615079125584938e-02 -9.8661609694687138e-02 0.0000000000000000e+00  4.5084288256323830e-02 -1.0589280805860279e-01 0.0000000000000000e+00  7.0298940316637248e-02 -1.1159774672850488e-01 0.0000000000000000e+00  9.5967775437945962e-02 -1.1226099046978959e-01 0.0000000000000000e+00  1.1802382620906485e-01 -1.0490197211074349e-01 0.0000000000000000e+00  1.3318381057940040e-01 -8.9995671132437713e-02 0.0000000000000000e+00  1.3708389913847893e-01 -6.7707996505971674e-02 0.0000000000000000e+00  1.2905650592795573e-01 -4.2081855190341182e-02 0.0000000000000000e+00  1.1462669283552740e-01 -1.8312206486792514e-02 0.0000000000000000e+00  9.5025194160674814e-02 2.1707759653544368e-03 0.0000000000000000e+00  7.2753387563456021e-02 1.8369546592720734e-02 0.0000000000000000e+00  4.7759232080987521e-02 3.0179089501877279e-02 0.0000000000000000e+00  2.1464541158468568e-02 3.6612412487001575e-02 0.0000000000000000e+00  -5.8706521479420810e-03 3.7856661758229847e-02 0.0000000000000000e+00  -3.2865382282973678e-02 3.4523497307269703e-02 0.0000000000000000e+00  -5.8507999981925948e-02 2.5719854885852423e-02 0.0000000000000000e+00  -8.2582473470051168e-02 1.1816741665849353e-02 0.0000000000000000e+00  -1.0440620322470802e-01 -6.9505290324140701e-03 0.0000000000000000e+00  -1.2002730725854192e-01 -2.8668079674835197e-02 0.0000000000000000e+00  -1.3139669904783038e-01 -5.3120704542295782e-02 0.0000000000000000e+00  -1.3710663482624730e-01 -7.9705416771658377e-02 0.0000000000000000e+00  -1.2870025032128626e-01 -9.9994517511875797e-02 0.0000000000000000e+00  -1.0896619108644952e-01 -1.1092494297612863e-01 0.0000000000000000e+00  -8.5084197152952484e-02 -1.1470043895670558e-01 0.0000000000000000e+00  -5.9056247476403097e-02 -1.1121292589922648e-01 0.0000000000000000e+00  -3.4892335775550065e-02 -1.0465025902858086e-01 0.0000000000000000e+00  -1.3488073748300492e-02 -9.7118537702573893e-02 0.0000000000000000e+00  5.9150525124099284e-03 -8.4936686347285087e-02 0.0000000000000000e+00  2.2297734385519775e-02 -7.2877042640856080e-02 0.0000000000000000e+00  3.6089839208328651e-02 -5.9893983318450292e-02 0.0000000000000000e+00  4.6963407892068446e-02 -4.4636955378636982e-02 0.0000000000000000e+00  5.5633771258088861e-02 -3.1064405745568058e-02 0.0000000000000000e+00  6.1151037662253660e-02 -1.5788444572373706e-02 0.0000000000000000e+00  6.4567814569109538e-02 -1.6502397795591954e-03 0.0000000000000000e+00  6.3584757835172284e-02 1.4494091263856708e-02 0.0000000000000000e+00  6.1847510716546594e-02 2.7494052325956683e-02 0.0000000000000000e+00  5.6952139441426665e-02 4.0231994298221510e-02 0.0000000000000000e+00  5.1226605733002695e-02 5.0746967807416173e-02 0.0000000000000000e+00  4.2572899439785282e-02 6.0295356775670203e-02 0.0000000000000000e+00  3.1221689517311267e-02 6.8243369812421004e-02 0.0000000000000000e+00  2.1821669828556628e-02 7.3114451448671791e-02 0.0000000000000000e+00  1.0248473709503571e-02 7.6249107954774520e-02 0.0000000000000000e+00  -2.7565370282560380e-03 7.7041635694929889e-02 0.0000000000000000e+00  -1.5223629720736220e-02 7.5369478145162136e-02 0.0000000000000000e+00  -2.6180854860630248e-02 7.1522678992943831e-02 0.0000000000000000e+00  -3.5907894674797783e-02 6.5684449170835990e-02 0.0000000000000000e+00  -4.5440594114052525e-02 5.7438825986469384e-02 0.0000000000000000e+00  -5.1879711874639009e-02 4.8210401867421308e-02 0.0000000000000000e+00  -5.8666335044611655e-02 3.5920927331535943e-02 0.0000000000000000e+00  -6.2971854637869099e-02 2.2262717423780772e-02 0.0000000000000000e+00  -6.3492605682192269e-02 9.1467522594519349e-03 0.0000000000000000e+00  -6.1695074035112027e-02 -4.6261731764597738e-03 0.0000000000000000e+00  -5.8558997450085117e-02 -2.1054211259976155e-02 0.0000000000000000e+00  -5.1458557611898888e-02 -3.4617005720020952e-02 0.0000000000000000e+00  -4.2058077831221369e-02 -4.8691557054710614e-02 0.0000000000000000e+00  -3.0075729517113528e-02 -6.3572148247031529e-02 0.0000000000000000e+00  1.3140336906247641e-01 1.4522927215555420e-04 0.0000000000000000e+00  1.3093447030225580e-01 1.0729431885174326e-02 0.0000000000000000e+00  1.2907615064783409e-01 2.4474109069332162e-02 0.0000000000000000e+00  1.2671517616646710e-01 3.4815370198183627e-02 0.0000000000000000e+00  1.2299140797428719e-01 4.6301758330609767e-02 0.0000000000000000e+00  1.1882449974117903e-01 5.6055465520660361e-02 0.0000000000000000e+00  1.1269674342474909e-01 6.7302820999356208e-02 0.0000000000000000e+00  1.0618964895101239e-01 7.7167858669140443e-02 0.0000000000000000e+00  9.8254591062500757e-02 8.7229060952138296e-02 0.0000000000000000e+00  9.0921945363558965e-02 9.4896740633491031e-02 0.0000000000000000e+00  8.1954875141764152e-02 1.0276193266429366e-01 0.0000000000000000e+00  7.2294387140675348e-02 1.0975208350599161e-01 0.0000000000000000e+00  6.3182347256453941e-02 1.1520835556943626e-01 0.0000000000000000e+00  5.0510940003166110e-02 1.2128963054365879e-01 0.0000000000000000e+00  4.1779828810067553e-02 1.2456932258435517e-01 0.0000000000000000e+00  2.9242374055074589e-02 1.2801647096600405e-01 0.0000000000000000e+00  1.7623278055383496e-02 1.3008973140964944e-01 0.0000000000000000e+00  5.8685756839647434e-03 1.3115276909475118e-01 0.0000000000000000e+00  -7.1138623384336356e-03 1.3120208184053814e-01 0.0000000000000000e+00  -1.6425046687005979e-02 1.3036203709666630e-01 0.0000000000000000e+00  -2.9204311722511398e-02 1.2802041264410369e-01 0.0000000000000000e+00  -4.1775665996742019e-02 1.2457251132069359e-01 0.0000000000000000e+00  -5.0502988861386461e-02 1.2129578160264869e-01 0.0000000000000000e+00  -6.2208259511229519e-02 1.1560046478378376e-01 0.0000000000000000e+00  -7.3264125880567466e-02 1.0907217217020700e-01 0.0000000000000000e+00  -8.1845814048224205e-02 1.0283319500340483e-01 0.0000000000000000e+00  -9.0842511659913194e-02 9.4982057766404268e-02 0.0000000000000000e+00  -9.8983196292069031e-02 8.6465186182271767e-02 0.0000000000000000e+00  -1.0632500379348127e-01 7.7244936001620065e-02 0.0000000000000000e+00  -1.1282325126667668e-01 6.7417005305160468e-02 0.0000000000000000e+00  -1.1845913680576614e-01 5.6892308200623402e-02 0.0000000000000000e+00  -1.2263486656275172e-01 4.7129107448254721e-02 0.0000000000000000e+00  -1.2695749432497386e-01 3.3760105189070674e-02 0.0000000000000000e+00  -1.2902978076903551e-01 2.4665015017990413e-02 0.0000000000000000e+00  -1.3072700147335631e-01 1.1784761932680987e-02 0.0000000000000000e+00  -1.3129378503581371e-01 -3.4669962806730463e-05 0.0000000000000000e+00  -1.3071787367049537e-01 -1.3005508282433520e-02 0.0000000000000000e+00  -1.2946857011778751e-01 -2.2243254310344168e-02 0.0000000000000000e+00  -1.2651565885476906e-01 -3.4918902491072192e-02 0.0000000000000000e+00  -1.2255000765854604e-01 -4.7314660643631629e-02 0.0000000000000000e+00  -1.1888154198351839e-01 -5.5893888454285855e-02 0.0000000000000000e+00  -1.1223988671839044e-01 -6.8271842432804222e-02 0.0000000000000000e+00  -1.0640541306192565e-01 -7.7123531068231471e-02 0.0000000000000000e+00  -9.8869029493564867e-02 -8.6569818912263077e-02 0.0000000000000000e+00  -9.1530142886151147e-02 -9.4233473707346471e-02 0.0000000000000000e+00  -8.0964963182881933e-02 -1.0346363314944949e-01 0.0000000000000000e+00  -7.3402645130613453e-02 -1.0896700834955371e-01 0.0000000000000000e+00  -6.2202581699088849e-02 -1.1558924215891131e-01 0.0000000000000000e+00  -5.0500380979057652e-02 -1.2128930508631316e-01 0.0000000000000000e+00  -4.1764458904574857e-02 -1.2457058960873116e-01 0.0000000000000000e+00  -2.8244041881278183e-02 -1.2832531580047968e-01 0.0000000000000000e+00  -1.7647407350162129e-02 -1.3023043462032102e-01 0.0000000000000000e+00  -6.9048996245128043e-03 -1.3121680816193959e-01 0.0000000000000000e+00  7.1148949616899734e-03 -1.3119495379585808e-01 0.0000000000000000e+00  1.6432327269107028e-02 -1.3035692499006951e-01 0.0000000000000000e+00  3.0248117044601737e-02 -1.2786559484660653e-01 0.0000000000000000e+00  4.0482311166734092e-02 -1.2504159627461631e-01 0.0000000000000000e+00  5.1786129852253067e-02 -1.2079234504309462e-01 0.0000000000000000e+00  6.1354742269038427e-02 -1.1619211613600561e-01 0.0000000000000000e+00  7.3229737479804768e-02 -1.0910037019312714e-01 0.0000000000000000e+00  8.1939491986799673e-02 -1.0273727004774254e-01 0.0000000000000000e+00  9.0060599947655473e-02 -9.5664425055474525e-02 0.0000000000000000e+00  9.9624997640618482e-02 -8.5649602307525996e-02 0.0000000000000000e+00  1.0623301863919776e-01 -7.7354713691123983e-02 0.0000000000000000e+00  1.1288140496080207e-01 -6.7280323727740940e-02 0.0000000000000000e+00  1.1791337691840156e-01 -5.7932686621331789e-02 0.0000000000000000e+00  1.2287999636658271e-01 -4.6136756868982685e-02 0.0000000000000000e+00  1.2652720276339596e-01 -3.4900370444148655e-02 0.0000000000000000e+00  1.2944371706191221e-01 -2.2419957890190932e-02 0.0000000000000000e+00  1.3086894137766727e-01 -1.1929234328974501e-02 0.0000000000000000e+00  -5.2393873975419177e-04 1.5140614093792346e-01 0.0000000000000000e+00  6.4004765921758825e-03 -8.6089811902552479e-02 0.0000000000000000e+00  -2.7731374117878047e-02 -8.0269695228555302e-02 0.0000000000000000e+00  3.8727342570123127e-02 -7.5111719125416518e-02 0.0000000000000000e+00  -4.8174897787492905e-02 -5.7309237438626953e-02 0.0000000000000000e+00  4.7164472023916944e-02 -5.0212909950026002e-02 0.0000000000000000e+00  -4.9479931494947504e-02 -5.3312942136362909e-02 0.0000000000000000e+00  5.8554467606199229e-02 -5.4265008506840573e-02 0.0000000000000000e+00  -8.1690149656476072e-02 -4.7181049247557866e-02 0.0000000000000000e+00  9.3581939701362638e-02 -3.4329959074029762e-02 0.0000000000000000e+00  -1.0614123486584515e-01 -2.7661665175343535e-03 0.0000000000000000e+00  1.0584122892622763e-01 1.3945090505122115e-02 0.0000000000000000e+00  7.1749395630006554e-02 7.6319671782922913e-02 0.0000000000000000e+00  -9.2136752504986583e-02 5.4029275080725317e-02 0.0000000000000000e+00  -3.1652570045126602e-02 9.7582554839621818e-02 0.0000000000000000e+00  -3.6384610820907111e-02 6.8556247739461507e-02 0.0000000000000000e+00  4.1224399120998248e-02 6.6853448751909739e-02 0.0000000000000000e+00  2.3086628158628886e-02 9.3172910865172612e-02 0.0000000000000000e+00  -3.4103632405513479e-02 9.9432976600531797e-02 0.0000000000000000e+00  -7.2362378396764564e-03 1.3731692869063591e-01 0.0000000000000000e+00  2.9021451735738113e-02 1.0189933000292989e-01 0.0000000000000000e+00  9.2989570389926165e-03 1.3811040580711190e-01 0.0000000000000000e+00  7.8268669717757158e-02 -7.1563576945282384e-02 0.0000000000000000e+00  3.7909193283648147e-02 -1.0471790121749171e-01 0.0000000000000000e+00  -2.4330439092008462e-02 -1.1229217531090392e-01 0.0000000000000000e+00  -6.6289321102437973e-02 -9.2911614704786261e-02 0.0000000000000000e+00  -8.9568717360927683e-02 -5.7503209168365182e-02 0.0000000000000000e+00  1.0777854954686585e-01 -3.1636361946242919e-02 0.0000000000000000e+00  8.7974968759266331e-02 -4.8128902540036267e-02 0.0000000000000000e+00  -1.0153889269629494e-01 -4.1268499946041273e-02 0.0000000000000000e+00  -1.1651823591185881e-01 -8.4960507249807245e-03 0.0000000000000000e+00  9.9255284108683700e-02 6.4091062123936185e-02 0.0000000000000000e+00  8.2641182546290506e-02 3.1786202129300840e-02 0.0000000000000000e+00  3.1818584500328960e-03 -5.2940600302960474e-02 0.0000000000000000e+00  -5.0550911595727071e-04 1.1969721233892183e-01 0.0000000000000000e+00  -4.4931245981849150e-03 -6.0241032128474523e-02 0.0000000000000000e+00  -5.9278932365700024e-03 -5.4767400366964626e-02 0.0000000000000000e+00  6.1599914086893932e-03 -6.2117170210638201e-02 0.0000000000000000e+00  -6.7132670855228949e-02 9.5439900508882444e-02 0.0000000000000000e+00  -5.7650484590978164e-02 6.4553509864139394e-02 0.0000000000000000e+00  1.2036494745473014e-01 1.5644528356545350e-02 0.0000000000000000e+00  -1.1081734489973491e-01 5.2343742345668930e-02 0.0000000000000000e+00  1.6588819506413034e-02 -5.7648278403230120e-02 0.0000000000000000e+00  4.5864516814706636e-02 1.1108764478027811e-01 0.0000000000000000e+00  -9.3489741018149605e-03 -6.4938142836495169e-02 0.0000000000000000e+00  -4.0149778478085908e-02 -6.3945159555325926e-02 0.0000000000000000e+00  5.2967055043527313e-02 -6.1830403780582438e-02 0.0000000000000000e+00  -7.3531059658876546e-02 -4.7261792530311875e-02 0.0000000000000000e+00  -1.0094462954651984e-01 -5.0668557276237744e-02 0.0000000000000000e+00  1.2120724458337553e-02 -1.2014971316159875e-01 0.0000000000000000e+00  -4.8775243845283055e-02 -1.1030377866378596e-01 0.0000000000000000e+00  6.9849501924020160e-02 -9.8324219852879494e-02 0.0000000000000000e+00  8.0651718098907754e-02 -3.2812170481922365e-02 0.0000000000000000e+00  -8.7173412342604034e-02 8.4399622227714233e-03 0.0000000000000000e+00  -1.1616267874743456e-01 -2.6233843933052323e-02 0.0000000000000000e+00  -9.1945313294654551e-02 -7.3534721530932920e-02 0.0000000000000000e+00  -5.0275054781128547e-03 9.9955196787807093e-02 0.0000000000000000e+00  -5.2293884949756501e-02 3.9869704410102604e-02 0.0000000000000000e+00  -3.4297898581244933e-03 2.3183960149278166e-02 0.0000000000000000e+00  9.5915394134796106e-02 -6.4095945109335167e-02 0.0000000000000000e+00  1.2152899843030839e-01 -9.8172732415460120e-03 0.0000000000000000e+00  5.2403055582289408e-02 4.8223497614118579e-02 0.0000000000000000e+00  2.2546127184259000e-02 -7.6629507291891691e-02 0.0000000000000000e+00  1.1191845788490550e-01 -3.5967877296518277e-02 0.0000000000000000e+00  -2.7604889373121599e-03 -8.0451534084596085e-02 0.0000000000000000e+00  4.7329170468402626e-02 6.8227963481599124e-02 0.0000000000000000e+00  -7.9901553560410860e-03 8.3317009771065473e-02 0.0000000000000000e+00  -3.6666401075132228e-02 -7.1569134732217696e-02 0.0000000000000000e+00  -1.1982952371561585e-01 3.9058438315087318e-02 0.0000000000000000e+00  5.2766391938255587e-02 -6.1026716654849447e-02 0.0000000000000000e+00  1.1926658079365601e-02 1.6634427769009329e-02 0.0000000000000000e+00  -4.9077392597166349e-03 1.3773757932452751e-01 0.0000000000000000e+00  -4.4034899609409421e-02 -6.6894521119870404e-02 0.0000000000000000e+00  2.3588940844733359e-02 -6.1422438954299850e-02 0.0000000000000000e+00  -3.1916941734978985e-02 -6.0707574841462879e-02 0.0000000000000000e+00  -7.9912384387779062e-02 -2.6601874097578609e-02 0.0000000000000000e+00  8.1731805758502349e-02 9.4454606539549957e-02 0.0000000000000000e+00  8.3351480565304323e-02 -3.1234739970667086e-03 0.0000000000000000e+00  1.1186024925660933e-01 5.7448962526200860e-02 0.0000000000000000e+00  -9.7354147508782310e-02 8.0327325966316421e-02 0.0000000000000000e+00  -2.6424770353223121e-02 1.2169718426111731e-01 0.0000000000000000e+00  -6.1711917606379835e-03 -3.6301322321865927e-02 0.0000000000000000e+00  2.8582375392254607e-02 -4.5221944476543832e-02 0.0000000000000000e+00  -7.5971983024786707e-02 3.7446268495276450e-02 0.0000000000000000e+00  -1.1917357222299962e-01 -1.4892199489244544e-02 0.0000000000000000e+00  -2.8010582555171256e-03 1.2731977139966388e-01 0.0000000000000000e+00  1.0488043727955990e-01 -5.5848643919781227e-02 0.0000000000000000e+00  1.2512385836938822e-01 1.0174878999062950e-02 0.0000000000000000e+00  -8.6118954815438825e-03 -8.7915239381335719e-02 0.0000000000000000e+00  -8.4667134731369206e-02 -8.9041382454958809e-02 0.0000000000000000e+00  -3.8806626725814981e-02 -7.3870882484262490e-02 0.0000000000000000e+00  -1.4419782875445333e-03 1.6585193704719420e-01 0.0000000000000000e+00  -2.0492630848736631e-02 1.3961381237010653e-01 0.0000000000000000e+00  -2.7171639405806875e-02 1.2460108552729146e-01 0.0000000000000000e+00  -5.0986408940846384e-02 -5.0151989022396086e-02 0.0000000000000000e+00  -3.5671375587927712e-02 -1.0722255327751848e-02 0.0000000000000000e+00  4.3322609191292202e-02 -7.6128232926113079e-03 0.0000000000000000e+00  2.5190537357803768e-02 8.7194085042605396e-02 0.0000000000000000e+00  -9.6821748007145852e-02 -4.6241926814600764e-02 0.0000000000000000e+00  -3.9079250441850323e-02 7.7373464227475527e-02 0.0000000000000000e+00  -5.7965225804857863e-03 -1.1351655414113394e-01 0.0000000000000000e+00  -5.5384706749774436e-02 9.7670173630272764e-02 0.0000000000000000e+00  -1.2450632469840825e-01 2.4470005312280607e-02 0.0000000000000000e+00  2.8258393469989089e-02 1.2080051922563856e-01 0.0000000000000000e+00  1.9605173898495757e-02 1.3756015074983091e-01 0.0000000000000000e+00  2.0564759929361898e-02 7.5773573639094427e-02 0.0000000000000000e+00  4.7928920212143712e-02 6.7821011969434603e-02 0.0000000000000000e+00  3.5426261004842855e-03 -8.5861085072843596e-02 0.0000000000000000e+00  2.3480243738648474e-02 1.1364947052892674e-01 0.0000000000000000e+00  2.5872786215314917e-02 -7.9928130009461473e-02 0.0000000000000000e+00  -8.4924693362572232e-02 8.4236883366256468e-02 0.0000000000000000e+00  -4.7895233671175527e-02 1.1682087667425547e-01 0.0000000000000000e+00  -5.5558216545771423e-03 1.0080861408362668e-01 0.0000000000000000e+00  4.7900794372505169e-02 8.9332199920023628e-02 0.0000000000000000e+00  1.1781432706947755e-01 3.3915113899208225e-02 0.0000000000000000e+00  5.4264999092684431e-02 9.3331370945764894e-02 0.0000000000000000e+00  9.7254761878801249e-02 -7.9901282814825059e-02 0.0000000000000000e+00  6.5799414671718792e-02 1.0193003115508659e-01 0.0000000000000000e+00  5.6184221571697474e-02 -1.1187709599672800e-01 0.0000000000000000e+00  9.4966137310327478e-02 -3.7496898639349845e-02 0.0000000000000000e+00  -8.2855902958972230e-02 -4.7519541186461241e-02 0.0000000000000000e+00  8.4875670118406743e-02 -9.1642138971604739e-02 0.0000000000000000e+00  2.0112491812147599e-02 -7.9436041371096555e-02 0.0000000000000000e+00  1.1595227641813287e-01 -4.4056011055871966e-02 0.0000000000000000e+00  -6.5571670438155566e-02 4.3502843279684796e-02 0.0000000000000000e+00  -3.2258886252162604e-02 7.0166615177995856e-02 0.0000000000000000e+00  3.0156718476556876e-02 -1.2202581869670590e-01 0.0000000000000000e+00  5.7403514611530163e-02 6.3103694160140056e-02 0.0000000000000000e+00  6.3712462023145067e-02 4.7119540008447626e-02 0.0000000000000000e+00  -1.0179545694202202e-01 3.1809954180248436e-02 0.0000000000000000e+00  9.1833909431493610e-02 9.0921847352773061e-02 0.0000000000000000e+00  -6.9152714071330890e-02 1.0875053939971736e-01 0.0000000000000000e+00  -1.5478539936931811e-02 -1.2630313504557045e-01 0.0000000000000000e+00  1.0473439277305552e-01 -7.0691593118204195e-03 0.0000000000000000e+00  -6.2639934960472987e-02 -7.2707916175114781e-02 0.0000000000000000e+00  4.6489632715064948e-02 -5.6129971281587386e-02 0.0000000000000000e+00  4.0336028323768813e-02 -6.4810376766359035e-02 0.0000000000000000e+00  1.4960165920157047e-02 1.2765534300919748e-01 0.0000000000000000e+00  -5.5419138878151822e-02 4.9262719184260832e-02 0.0000000000000000e+00  5.1133446164586246e-02 -9.3625331793109501e-02 0.0000000000000000e+00  8.8270655608055068e-02 -4.5929194593007448e-02 0.0000000000000000e+00  4.3910815227528079e-02 -5.3580045808594136e-02 0.0000000000000000e+00  3.9133381728147579e-02 -5.0547780882618146e-02 0.0000000000000000e+00  1.0724189802519751e-02 -3.4161630748765485e-02 0.0000000000000000e+00  9.5949523769701756e-02 2.1961792809451094e-02 0.0000000000000000e+00  -5.3855357224926362e-02 -5.1830791301921676e-02 0.0000000000000000e+00  -1.2803027091979294e-01 1.5192673709359578e-02 0.0000000000000000e+00  6.4423221083733453e-02 -8.0007018520513659e-02 0.0000000000000000e+00  2.0668031223067457e-02 -1.0363024471127642e-01 0.0000000000000000e+00  -6.2098306253078252e-02 -1.1175023026519548e-01 0.0000000000000000e+00  -7.6241549197144293e-02 5.9448173158585277e-02 0.0000000000000000e+00  1.1977113245179810e-02 -7.5933250189106433e-02 0.000000000000000