<?xml version="1.0"?>
<VTKFile type="UnstructuredGrid"  version="0.1"  >
<UnstructuredGrid>
<Piece  NumberOfPoints="678" NumberOfCells="1275">
<Points>
<DataArray  type="Float64"  NumberOfComponents="3"  format="ascii">-0.9209469909547848 -0.1068822718004292 0  -0.9154885720662156 -0.2064270810232405 0  -0.8994620635567891 -0.3046562034864713 0  -0.8727785070843397 -0.4008421971099703 0  -0.8357980492649516 -0.4935366574330588 0  -0.7891217217505621 -0.581568587238296 0  -0.733224939600767 -0.6640346512859581 0  -0.6686472678377577 -0.7401124323744326 0  -0.5961779383362532 -0.808708645668514 0  -0.5169277411009596 -0.8690317361362176 0  -0.4313975868422422 -0.9204651548489075 0  -0.340800189675227 -0.9623468206937225 0  -0.2463985778574987 -0.9941303524702706 0  -0.1490369641000752 -1.015514479909793 0  -0.04976671367874614 -1.026261069497461 0  0.04986042272416904 -1.026361905092645 0  0.1489910011188877 -1.015639299039115 0  0.2464520675773485 -0.994219486367133 0  0.3410391504002774 -0.9623218566492129 0  0.4312612945838076 -0.9204297062928489 0  0.5168409280226282 -0.8690055686322347 0  0.5963679640263753 -0.8086202336887734 0  0.6686673861449718 -0.7400415554594364 0  0.7331763042694556 -0.6641246716285006 0  0.7891602551392778 -0.5816259662096075 0  0.835967824304006 -0.4933764306122609 0  0.8728497376952313 -0.400839484447706 0  0.8994448324123889 -0.3047757309555375 0  0.9154997205324064 -0.2062019080652791 0  0.9208221741910044 -0.1065852771043563 0  0.9154958610753425 -0.00709732160184955 0  0.8993651157537527 0.09127814462405641 0  0.8727586862240251 0.1872426994691285 0  0.8358641503963288 0.2798292525848137 0  0.7891822643366575 0.3679926610549231 0  0.7331993535691331 0.4506014935320002 0  0.6686857511788347 0.5264936198550343 0  0.5962780404511621 0.5951211977240101 0  0.5167760143134755 0.6555161715823911 0  0.4313079029081385 0.7068670706867238 0  0.3408834131763665 0.7487669505827752 0  0.2463288107939145 0.7806862779052202 0  0.1489660506902955 0.8020305321763783 0  0.0499319916057754 0.8128431829722581 0  -0.04981225321575416 0.8128165534552066 0  -0.1490872519316176 0.8020507875872256 0  -0.2462714002541635 0.7806297739884851 0  -0.3409465402728064 0.7487715824424412 0  -0.4315364946030897 0.7068797473956455 0  -0.5168736908843923 0.6554728145505633 0  -0.596076987432564 0.5952101156087967 0  -0.6686306108412214 0.526457987404642 0  -0.7331220265028273 0.4505033406904878 0  -0.7890021513469432 0.3681939096439333 0  -0.8358294143269533 0.2800661887986367 0  -0.8728296879125229 0.1872084701147068 0  -0.8994759766888583 0.09122731716662787 0  -0.9155719820217165 -0.007162861224324486 0  -1.812170834212751 0.09992557541499344 0  -1.812170610256267 -0.09992593988112489 0  -1.790163708884912 -0.2987714118742623 0  -1.746447239571368 -0.4938423695610671 0  -1.681518536975046 -0.6829747584546787 0  -1.596180302029543 -0.8638093385145145 0  -1.491467156316958 -1.034159463271802 0  -1.368644138403248 -1.191960985157232 0  -1.229249039895649 -1.335251652004236 0  -1.074859750483823 -1.462398087135765 0  -0.9074598518910443 -1.571766080502096 0  -0.7290440318572976 -1.662055109288387 0  -0.541738203663655 -1.732186413329594 0  -0.3479405855261837 -1.781261886942965 0  -0.1499208070829902 -1.808721645210881 0  0.05000842091034808 -1.814228444408485 0  0.2492871573926803 -1.797717538403989 0  0.4455827938489043 -1.759376477543558 0  0.6363757623736097 -1.699701117199816 0  0.8195008385003694 -1.619375847943531 0  0.992670692822426 -1.519395693601549 0  1.153792077213058 -1.400972249888213 0  1.300907446315964 -1.26554299319958 0  1.432235224098864 -1.114746388457179 0  1.546145658798707 -0.9504656993263221 0  1.64135923179438 -0.7745258920564252 0  1.716588212588535 -0.589305491323974 0  1.7709866280939 -0.396934306310309 0  1.803902520475867 -0.1996554140309843 0  1.81492362939907 5.488191568717734e-05 0  1.803914329577767 0.1996023454358644 0  1.770986660093702 0.3969339007001422 0  1.716588265051854 0.5893052651431644 0  1.641359540223873 0.7745261730718099 0  1.546165171404412 0.9504234534431474 0  1.432226594756722 1.114747249395752 0  1.300874500121502 1.265573805290408 0  1.153791470904473 1.400971568305218 0  0.992707977697623 1.51936885420756 0  0.8194958823799039 1.619367643210256 0  0.636337319950765 1.699713141106888 0  0.4455437193324216 1.759388633357356 0  0.249286672992167 1.797725441533243 0  0.0500033209368663 1.814237379956178 0  -0.1498294656794487 1.808729199311955 0  -0.347985740946642 1.781251194369017 0  -0.5417762877910386 1.732176860183751 0  -0.7290537828860465 1.662058520553612 0  -0.9074214033488336 1.571793953879514 0  -1.074858267034247 1.462397242401363 0  -1.229248820512899 1.33525211271311 0  -1.368647601533967 1.191956275417241 0  -1.49143872496609 1.034195837166654 0  -1.596200297858105 0.8637675681177619 0  -1.681516126338346 0.6829798802324573 0  -1.74644737809692 0.4938416659829178 0  -1.790163387425245 0.298771981196925 0  1.870759332459914e-05 -0.1067871771411785 0  -0.1811318767332229 1.305794823535281 0  0.3171814750274837 1.276328690154755 0  -0.729296756733545 1.10554498128487 0  0.7687581324682875 1.080252913417119 0  -1.143469170793267 0.7026067512030711 0  1.154899011163638 0.6764794076351404 0  -1.32949180997565 0.2625690369202883 0  -0.04986743797229849 -0.5651613423377184 0  -0.4282908654186603 -0.2774075319318673 0  0.3713058368268543 -0.3790871484085849 0  -0.3170589351657635 0.2279307889279937 0  0.1472289937584255 0.330171586400104 0  1.333063093546072 0.2513940422899581 0  1.360331712514417 -0.2272931650262118 0  -1.347979578788183 -0.3024148097823993 0  1.228212296728829 -0.6649723126603063 0  -1.187158310279114 -0.7359581851393628 0  -0.9137817792940148 -1.071271162177584 0  0.9556427971610781 -1.038454404167798 0  0.57046576552385 -1.300838629950494 0  -0.498796226901165 -1.332664640168686 0  0.1421768470427457 -1.414327119471418 0  0.4827637738276094 0.02727326596615607 0  -0.5189760228914679 1.385941460491457 0  -0.1740664779122139 -1.340186977428004 0  -1.064299880912049 1.035634879799031 0  0.6244755859291741 1.366073963039657 0  1.140375794201671 0.9929572071467355 0  -1.498951845199266 -0.01459850671943908 0  0.125688121536477 1.516879361822779 0  -0.3666338802537737 -0.588992289305919 0  -0.5977894335356446 -0.008764995281703807 0  -0.1302219732805239 0.4848021076308892 0  0.2585053805775021 -0.6655295930185546 0  -0.4052589311566945 1.068899076277579 0  -1.20740899271847 -0.04603211131514922 0  -0.8395012619697758 0.8044661906118626 0  1.421292647992054 0.5383460680059865 0  0.857487182459046 0.7784366006842208 0  0.4468752167607598 0.3247903091428279 0  -1.407650053421746 0.5550557395759251 0  1.520075929658037 0.0220164814361986 0  8.743777163704255e-06 1.089950362060203 0  0.5031942968567984 0.9810430054982664 0  0.6267514339921116 -0.2807726963510299 0  -1.088044440830293 0.419726801254992 0  -0.3375809659440497 -0.03247110625663939 0  1.451975319489887 -0.4936411935861779 0  1.092299182185746 0.4003055560553666 0  -1.420231598633882 -0.5757074294397349 0  -0.3070518292136678 1.529111116711433 0  0.2669869575280029 -0.1319923729185941 0  0.2507610415277904 1.03254222318948 0  0.9938265496765522 1.202198240500017 0  -0.8630120148732356 -1.321133892777159 0  0.4165143082363237 1.509023038496198 0  -0.8637024605573679 1.321859940625793 0  -0.6002090985912464 0.8909243336940501 0  1.174619943174366 -0.04293724736009414 0  1.215720339469387 -0.9419694868802629 0  -0.5604619516721511 0.2730980433032291 0  -1.175063683601959 -1.005077781064762 0  -0.06073992352416496 -1.569631517094407 0  -0.6460649089283124 -1.106432163639663 0  1.133431621657424 -0.4213029314782107 0  0.9807885737902927 -0.7706485500489698 0  -1.134961873636361 -0.4701563729415798 0  0.8444412252358815 -1.289024863414487 0  -1.353108198113689 0.8316160892037099 0  0.2541431473279214 0.1112994844201 0  1.330009166291103 0.843614444279602 0  -1.547741710768881 0.3614822964107776 0  -0.2216623435886848 -0.3984032130103116 0  -0.07872772953865062 0.2509621425615473 0  0.3938998193551959 -1.499203146946364 0  -0.3412395029619754 -1.529520735155127 0  1.572164980766565 0.2548894074689125 0  -0.1945659078197309 -0.7583432759706974 0  -0.575738687632914 -0.4684818511011421 0  -0.6668032566264531 -0.2400300811045361 0  0.04901723422761749 -0.7851250204574431 0  -0.4019019022858601 0.4486274426413086 0  0.3002824014833893 0.5101116181823649 0  0.6927130844479872 -1.06662655930906 0  0.5267184210588085 -0.5540052726294413 0  0.002819078730496826 -0.3390053233518341 0  -1.118041721361088 0.1669457207735834 0  -0.9420002743241765 -0.8153100589255743 0  -0.9241462972594753 0.5863748057414002 0  1.11896392363135 0.1759553504861046 0  0.9534983528207036 0.5760497756148805 0  0.3241993178810151 -1.236656546685706 0  1.569132375863375 -0.3047279365627117 0  0.09385551968255339 1.294297391246524 0  -1.568959061373118 -0.2343834947096228 0  0.657947666112441 0.1553272159752557 0  0.6851964925351514 -0.06582740180124323 0  -0.09121059006862015 1.504189086582634 0  0.08000667771740248 0.5810464930811406 0  -1.130393795355279 -0.2510937414478387 0  -1.377373887697828 -0.846802964345703 0  1.438504880978627 -0.7071948307356808 0  -0.332730716673083 -1.192976535643236 0  0.1447175423362996 -0.4912644895241371 0  1.139812177603149 -1.135107273677191 0  0.8118685815440169 -0.8892596046217043 0  -0.7590726617659446 -0.9346781080822352 0  -1.083229512287389 -1.189840453720548 0  0.687162674941047 0.8916470628687883 0  -0.198961282782734 1.010671270364192 0  0.5961331538802886 -1.501811832764752 0  0.486555191762374 -1.115617276182289 0  0.8430296164987365 1.360484203949541 0  0.5083230081259592 1.1910606487396 0  -0.6849757596617488 -1.448123271580544 0  0.1398250663022234 -1.621985324336378 0  0.01611621336127142 -1.239178853427727 0  -0.9962816390498932 -0.6192016929566049 0  0.4617790932642842 -0.1701581284110986 0  -0.1831010015838894 0.08636561561217924 0  -0.1949674246725165 -0.18861927503194
[...]
<PointData  Vectors="f_145-0"> 
<DataArray  type="Float64"  Name="f_145-0"  NumberOfComponents="3" format="ascii">-1.7873081014487407e-02 -4.7928109189836678e-02 0.0000000000000000e+00  -1.2424401574616620e-02 -4.8513656951306862e-02 0.0000000000000000e+00  -8.0835982793208191e-03 -4.5086981850644595e-02 0.0000000000000000e+00  -3.2551784356501926e-03 -4.5356607038614674e-02 0.0000000000000000e+00  1.0220133273969904e-03 -4.4279245313953074e-02 0.0000000000000000e+00  3.3541420429783670e-03 -4.0451674268147025e-02 0.0000000000000000e+00  4.5194290115770138e-03 -3.6303313715936217e-02 0.0000000000000000e+00  6.4899600532327146e-03 -3.4312235594519305e-02 0.0000000000000000e+00  7.9269275789425921e-03 -3.2082568969661537e-02 0.0000000000000000e+00  5.9815597549328168e-03 -2.8235239668017359e-02 0.0000000000000000e+00  6.6573867361428155e-03 -2.6462040713895216e-02 0.0000000000000000e+00  7.0798010217618303e-03 -2.4946706589657298e-02 0.0000000000000000e+00  4.0388272512656949e-03 -2.2613936551916528e-02 0.0000000000000000e+00  1.9335575612042014e-03 -2.1303352083173344e-02 0.0000000000000000e+00  2.5549705883580894e-03 -2.0996782435659018e-02 0.0000000000000000e+00  -8.4188958826299243e-04 -2.1385605666585553e-02 0.0000000000000000e+00  -2.7244404224757040e-03 -2.2145307482476052e-02 0.0000000000000000e+00  -3.3663731050282033e-03 -2.3029686148166206e-02 0.0000000000000000e+00  -3.0003789567294701e-03 -2.3934069811823451e-02 0.0000000000000000e+00  -8.0464794200197417e-03 -2.7279596472273432e-02 0.0000000000000000e+00  -6.8477724150978799e-03 -2.8647485814895339e-02 0.0000000000000000e+00  -5.2011299578684804e-03 -2.9972590337700215e-02 0.0000000000000000e+00  -5.5725202744782865e-03 -3.3536475686800765e-02 0.0000000000000000e+00  -5.1169012958903141e-03 -3.7702978062456600e-02 0.0000000000000000e+00  -3.1172615584671762e-03 -4.0984712103835669e-02 0.0000000000000000e+00  1.0837637152649748e-03 -4.1039602175494579e-02 0.0000000000000000e+00  3.8202233118810481e-03 -4.4870401375086300e-02 0.0000000000000000e+00  7.5967702260560334e-03 -4.6909251095852901e-02 0.0000000000000000e+00  1.2526394046321944e-02 -4.4830442730475172e-02 0.0000000000000000e+00  1.7188464558648548e-02 -4.3288290885307903e-02 0.0000000000000000e+00  2.2314621563616764e-02 -4.2445047836295845e-02 0.0000000000000000e+00  2.6951569798178913e-02 -3.8938868120142793e-02 0.0000000000000000e+00  3.1672983530874312e-02 -3.5782933746875953e-02 0.0000000000000000e+00  3.4953825037098200e-02 -3.0346089600658845e-02 0.0000000000000000e+00  3.6459257852030628e-02 -2.2955052115247683e-02 0.0000000000000000e+00  3.6070805605243374e-02 -1.4976383013504709e-02 0.0000000000000000e+00  3.6135779507834476e-02 -9.6048014232542576e-03 0.0000000000000000e+00  3.3389740821172562e-02 -2.6402898912093269e-03 0.0000000000000000e+00  2.8444371751325869e-02 4.1920142931323534e-03 0.0000000000000000e+00  2.4327868702300758e-02 8.9199719355142117e-03 0.0000000000000000e+00  2.0303927046920120e-02 1.2665286410495274e-02 0.0000000000000000e+00  1.3614125834482257e-02 1.6236918133727480e-02 0.0000000000000000e+00  8.4652844144014836e-03 1.7970987270632809e-02 0.0000000000000000e+00  3.9364039865140230e-03 1.9072914396534236e-02 0.0000000000000000e+00  -2.4872290054688611e-03 1.8981605140744276e-02 0.0000000000000000e+00  -1.0698453085786685e-02 1.7796643864202225e-02 0.0000000000000000e+00  -1.2973003600463991e-02 1.6405091714826198e-02 0.0000000000000000e+00  -2.0983407886634952e-02 1.2541316907404889e-02 0.0000000000000000e+00  -2.6960574803988065e-02 7.7981499344596588e-03 0.0000000000000000e+00  -2.9894598587371150e-02 3.2914904543830548e-03 0.0000000000000000e+00  -3.0687945871187755e-02 -6.8668791577828692e-04 0.0000000000000000e+00  -3.5821506813084249e-02 -9.9977445315440269e-03 0.0000000000000000e+00  -3.6141798707595159e-02 -1.6056038030671200e-02 0.0000000000000000e+00  -3.4269103667645288e-02 -1.9819415785400574e-02 0.0000000000000000e+00  -3.3824833777583260e-02 -2.7345154392210601e-02 0.0000000000000000e+00  -3.2462201793452931e-02 -3.6838463489631441e-02 0.0000000000000000e+00  -2.7988751815865038e-02 -3.9836692801377305e-02 0.0000000000000000e+00  -2.3043141406462981e-02 -4.3171739869576162e-02 0.0000000000000000e+00  -9.8779538998529634e-02 4.3441740716332142e-03 0.0000000000000000e+00  -9.8774784581425953e-02 -4.3544154400590816e-03 0.0000000000000000e+00  -9.7381692366453734e-02 -1.7179461088681350e-02 0.0000000000000000e+00  -9.5221494992758574e-02 -2.6809764513905942e-02 0.0000000000000000e+00  -9.1649412256758850e-02 -3.7245332524167410e-02 0.0000000000000000e+00  -8.7001310300241622e-02 -4.7079584915177441e-02 0.0000000000000000e+00  -8.1308099867219763e-02 -5.6362825352246085e-02 0.0000000000000000e+00  -7.4517828658118984e-02 -6.5055934960246226e-02 0.0000000000000000e+00  -6.7659853643159337e-02 -7.2110446893458205e-02 0.0000000000000000e+00  -5.8510360965954272e-02 -7.9582239442945318e-02 0.0000000000000000e+00  -4.9392739399856070e-02 -8.5542126229448387e-02 0.0000000000000000e+00  -3.9662539638401190e-02 -9.0467387322543572e-02 0.0000000000000000e+00  -2.8634476321655819e-02 -9.4643808436023588e-02 0.0000000000000000e+00  -1.8961256172997529e-02 -9.7077004282725518e-02 0.0000000000000000e+00  -9.0859459676213960e-03 -9.8463091163125127e-02 0.0000000000000000e+00  2.7112952148342015e-03 -9.8705451800932931e-02 0.0000000000000000e+00  1.3598543024114352e-02 -9.7839143310560137e-02 0.0000000000000000e+00  2.5186162115578021e-02 -9.5616682339420653e-02 0.0000000000000000e+00  3.4571173749057500e-02 -9.2682036903132689e-02 0.0000000000000000e+00  4.4684816125987160e-02 -8.8263240474930671e-02 0.0000000000000000e+00  5.4103781483656556e-02 -8.2815936517921490e-02 0.0000000000000000e+00  6.2889891409410120e-02 -7.6365803683167977e-02 0.0000000000000000e+00  7.0902312023975303e-02 -6.8990133791268463e-02 0.0000000000000000e+00  7.8127210476791331e-02 -6.0669477984182374e-02 0.0000000000000000e+00  8.3759847078406072e-02 -5.2569768754982080e-02 0.0000000000000000e+00  8.9814640989312550e-02 -4.1371530719704140e-02 0.0000000000000000e+00  9.3551543270601376e-02 -3.2118167255328955e-02 0.0000000000000000e+00  9.6285481172925819e-02 -2.2528075128017282e-02 0.0000000000000000e+00  9.8152060972648864e-02 -1.0855915281505790e-02 0.0000000000000000e+00  9.8866204826152909e-02 1.1078507369877654e-03 0.0000000000000000e+00  9.8388548122727806e-02 9.7805894000383628e-03 0.0000000000000000e+00  9.6286202693169551e-02 2.2517317355167949e-02 0.0000000000000000e+00  9.3553380588561469e-02 3.2110873468572047e-02 0.0000000000000000e+00  8.9822315159880095e-02 4.1374636395487933e-02 0.0000000000000000e+00  8.4157636149899948e-02 5.1714895810250079e-02 0.0000000000000000e+00  7.7957288167813193e-02 6.0686662436243342e-02 0.0000000000000000e+00  7.0239467338032019e-02 6.9613056372758303e-02 0.0000000000000000e+00  6.2880786347470852e-02 7.6352147489764446e-02 0.0000000000000000e+00  5.4861437080036532e-02 8.2274927452837363e-02 0.0000000000000000e+00  4.4589242746394170e-02 8.8102247930873831e-02 0.0000000000000000e+00  3.3796412799245570e-02 9.2929114119808934e-02 0.0000000000000000e+00  2.4397933118734914e-02 9.5865315750118085e-02 0.0000000000000000e+00  1.3589134429724360e-02 9.8000526210556840e-02 0.0000000000000000e+00  2.6092694027201506e-03 9.8887195573503672e-02 0.0000000000000000e+00  -7.2400659933703248e-03 9.8619984846332207e-02 0.0000000000000000e+00  -1.9875385569121013e-02 9.6865799967920815e-02 0.0000000000000000e+00  -2.9407338203657308e-02 9.4452861619472278e-02 0.0000000000000000e+00  -3.9860939582504501e-02 9.0536747560326314e-02 0.0000000000000000e+00  -4.8617437553600595e-02 8.6105820815690640e-02 0.0000000000000000e+00  -5.8483948527589119e-02 7.9566057786534694e-02 0.0000000000000000e+00  -6.7658836686676660e-02 7.2119192120874739e-02 0.0000000000000000e+00  -7.4590202484568158e-02 6.4959869832552170e-02 0.0000000000000000e+00  -8.0736125668249129e-02 5.7096801212288585e-02 0.0000000000000000e+00  -8.7407603907095094e-02 4.6233810044641506e-02 0.0000000000000000e+00  -9.1601950520846576e-02 3.7345875189007970e-02 0.0000000000000000e+00  -9.5224946863303267e-02 2.6793210062490285e-02 0.0000000000000000e+00  -9.7375469246540419e-02 1.7188723250862018e-02 0.0000000000000000e+00  4.2342540783043067e-04 2.6622969512807248e-02 0.0000000000000000e+00  -1.1778472739632477e-02 6.2194019363350977e-02 0.0000000000000000e+00  1.9698157729930131e-02 6.0343880454350414e-02 0.0000000000000000e+00  -4.4264017416945460e-02 4.6922859028725429e-02 0.0000000000000000e+00  4.6570363456441707e-02 4.5938774022257538e-02 0.0000000000000000e+00  -6.4497287249010493e-02 1.9925807709329672e-02 0.0000000000000000e+00  6.4415997852298318e-02 1.7509498704238267e-02 0.0000000000000000e+00  -6.8920749073608664e-02 -6.9161283355965624e-03 0.0000000000000000e+00  5.7955535446132503e-04 8.1492366094048554e-03 0.0000000000000000e+00  9.7264770678478997e-04 5.6035197950363123e-03 0.0000000000000000e+00  -3.7813859619687624e-03 5.0206330575759163e-03 0.0000000000000000e+00  -1.3385178876541145e-02 1.9291810700065797e-02 0.0000000000000000e+00  7.5846226499407948e-03 2.5753131260433205e-02 0.0000000000000000e+00  6.8856173962433251e-02 -7.2660589340379144e-03 0.0000000000000000e+00  6.5991245110304048e-02 -3.2183666539522197e-02 0.0000000000000000e+00  -6.3308330473204541e-02 -3.6220949389599133e-02 0.0000000000000000e+00  5.3014311869301819e-02 -5.1255381325618410e-02 0.0000000000000000e+00  -4.9680597196737820e-02 -5.3920694212376760e-02 0.0000000000000000e+00  -3.3832626411232913e-02 -6.4566342436528118e-02 0.0000000000000000e+00  3.6277388620320615e-02 -6.3768831414074620e-02 0.0000000000000000e+00  1.9513391245813208e-02 -6.9319021947154558e-02 0.0000000000000000e+00  -1.6332974634649697e-02 -7.0435761279887196e-02 0.0000000000000000e+00  3.8807636841961374e-03 -7.1443468338796959e-02 0.0000000000000000e+00  1.2295670174728043e-02 6.8324545740767236e-03 0.0000000000000000e+00  -3.3521472226343732e-02 7.5534982627029110e-02 0.0000000000000000e+00  -4.6950312514345985e-03 -6.1478058422131485e-02 0.0000000000000000e+00  -6.5800253922158367e-02 5.0627152873386393e-02 0.0000000000000000e+00  3.9970794717316099e-02 7.4900072342697160e-02 0.0000000000000000e+00  7.0683449808853827e-02 4.8607595527300297e-02 0.0000000000000000e+00  -8.3601566100402980e-02 -1.4917735092915873e-02 0.0000000000000000e+00  7.8709055286900372e-03 8.6397325953138648e-02 0.0000000000000000e+00  6.0984093769185371e-03 -3.4125900139388311e-03 0.0000000000000000e+00  -1.3382869492641511e-02 -6.4932171201281070e-03 0.0000000000000000e+00  -7.5536245805400476e-03 2.2571150524976880e-02 0.0000000000000000e+00  -5.4484609390483890e-03 -2.7513890422913956e-03 0.0000000000000000e+00  -2.3300080779835971e-02 3.6060590030142906e-02 0.0000000000000000e+00  -4.8050459721871198e-02 -3.1591347063490947e-02 0.0000000000000000e+00  -4.3676673351904068e-02 1.5972801549338139e-02 0.0000000000000000e+00  8.4136825531133233e-02 1.9580944419914089e-02 0.0000000000000000e+00  4.5027586446652695e-02 1.2755283653582920e-02 0.0000000000000000e+00  2.2518140802704447e-02 9.4272535881895266e-03 0.0000000000000000e+00  -8.3453937374844189e-02 2.0428924602734880e-02 0.0000000000000000e+00  8.5717314091720481e-02 -1.1173546446589295e-02 0.0000000000000000e+00  2.4890564470625014e-04 3.5995892380473619e-02 0.0000000000000000e+00  2.7891831381926770e-02 2.7337991628366462e-02 0.0000000000000000e+00  8.1575613929726638e-04 -1.5072640929070194e-02 0.0000000000000000e+00  -5.0044138616333986e-02 -1.0031277557486940e-02 0.0000000000000000e+00  -6.0432130913347310e-03 1.7511948279333115e-02 0.0000000000000000e+00  7.8266445946188354e-02 -4.0640878250913309e-02 0.0000000000000000e+00  4.9269931731784358e-02 -1.1161220236874152e-02 0.0000000000000000e+00  -7.5140719030050249e-02 -4.4943121522494522e-02 0.0000000000000000e+00  -1.9872915371667996e-02 8.7663212694564022e-02 0.0000000000000000e+00  2.6904148507168155e-03 1.9809554439051871e-02 0.0000000000000000e+00  1.4266298189177110e-02 2.9628058563935571e-02 0.0000000000000000e+00  6.2515878489569479e-02 6.4864468828541258e-02 0.0000000000000000e+00  -4.2264014225389022e-02 -7.9595841903039241e-02 0.0000000000000000e+00  2.6538188096508361e-02 8.6381292384877753e-02 0.0000000000000000e+00  -5.4467845586071352e-02 7.3342896486000189e-02 0.0000000000000000e+00  -3.1697028390700627e-02 1.7708711801487146e-02 0.0000000000000000e+00  4.1751422118131418e-02 -3.4292575358611500e-02 0.0000000000000000e+00  6.0819443347121666e-02 -6.3240771755618042e-02 0.0000000000000000e+00  -2.7436515359896923e-02 -1.7510676372251535e-03 0.0000000000000000e+00  -5.8946607731404345e-02 -6.5911306440718159e-02 0.0000000000000000e+00  -2.9802381240904121e-03 -8.8985070868794813e-02 0.0000000000000000e+00  -1.2040457963788028e-02 -5.3475996328063054e-02 0.0000000000000000e+00  3.1774558626226461e-02 -4.5203533704686619e-02 0.0000000000000000e+00  2.4597748800786308e-02 -5.0686942335864009e-02 0.0000000000000000e+00  -3.3768951231374744e-02 -4.7265631489392175e-02 0.0000000000000000e+00  3.9306323683181793e-02 -7.7433622294073759e-02 0.0000000000000000e+00  -8.2182029693104175e-02 4.1389395011219375e-02 0.0000000000000000e+00  8.7071293502447022e-03 2.3793492206132354e-02 0.0000000000000000e+00  8.1015341012876524e-02 4.1308681971066435e-02 0.0000000000000000e+00  -9.1264902122968006e-02 1.2100741759455746e-02 0.0000000000000000e+00  2.5682572420462277e-03 1.2494598214457633e-02 0.0000000000000000e+00  -3.1973882144951259e-03 2.7839282865099260e-02 0.0000000000000000e+00  1.7932645884970132e-02 -8.5292617446167687e-02 0.0000000000000000e+00  -1.6065926739754748e-02 -8.7093779768688234e-02 0.0000000000000000e+00  9.2007192274653621e-02 5.9197664696070563e-03 0.0000000000000000e+00  5.0301575438529292e-03 -6.9441432079405422e-03 0.0000000000000000e+00  5.7229562748923601e-03 -1.4999628335598807e-02 0.0000000000000000e+00  -3.8819501357920147e-03 -1.9346801110805268e-02 0.0000000000000000e+00  -2.9546550411064026e-03 -5.3471267000183217e-03 0.0000000000000000e+00  -2.2536513593035396e-02 1.0763574942943348e-02 0.0000000000000000e+00  1.7117741307894403e-02 1.6227886819293439e-02 0.0000000000000000e+00  1.2113471398346419e-02 -5.3488639692026989e-02 0.0000000000000000e+00  -5.2584586362916059e-03 -1.4311105735176305e-02 0.0000000000000000e+00  1.5576021891735426e-04 1.9061366236563827e-02 0.0000000000000000e+00  -4.0777556048939304e-02 -2.7735388000092509e-02 0.0000000000000000e+00  -2.1381076739173149e-02 -5.1946286706393383e-02 0.0000000000000000e+00  -4.4392727179162587e-02 -4.7040384157800482e-03 0.0000000000000000e+00  4.2097964498361992e-02 -2.6699455290792626e-02 0.0000000000000000e+00  4.4959694800973303e-02 -3.4013625800397855e-03 0.0000000000000000e+00  3.7878242790153603e-03 -5.2271661301806327e-02 0.0000000000000000e+00  8.9027303456678586e-02 -2.6938334040207006e-02 0.0000000000000000e+00  5.5287419321940062e-03 6.0967380326305456e-02 0.0000000000000000e+00  -8.8985470340776002e-02 -2.3868867902340003e-02 0.0000000000000000e+00  2.4280269036428624e-02 -1.4260402650832229e-02 0.0000000000000000e+00  1.1705453253067329e-02 -1.9898960996851102e-02 0.0000000000000000e+00  -6.2246005140638196e-03 8.4989217047631085e-02 0.0000000000000000e+00  2.4834388919748951e-03 2.1745376336931674e-02 0.0000000000000000e+00  -3.2736512344790393e-02 -4.1528246844579966e-02 0.0000000000000000e+00  -7.4711923422486518e-02 -5.6508283346982609e-02 0.0000000000000000e+00  7.8640374105067773e-02 -4.9830106616768503e-02 0.0000000000000000e+00  -2.2225022451038919e-03 -4.6466053255284308e-02 0.0000000000000000e+00  -2.2376733515290128e-03 1.0305995631203980e-02 0.0000000000000000e+00  5.9265169504251328e-02 -7.1572714718108055e-02 0.0000000000000000e+00  1.1953285505722052e-02 -4.7868019408645421e-02 0.0000000000000000e+00  -9.7521476841755071e-03 -4.6849947289998022e-02 0.0000000000000000e+00  -5.6090258408032882e-02 -7.4168909350847551e-02 0.0000000000000000e+00  3.8463099103949364e-02 2.1601817780525241e-02 0.0000000000000000e+00  -1.1238728538886026e-02 2.6450419661328974e-02 0.0000000000000000e+00  2.9729522123116196e-02 -8.7857838199281238e-02 0.0000000000000000e+00  2.3286813419314120e-03 -4.4806254981680879e-02 0.0000000000000000e+00  5.2855637603722645e-02 7.6419848881834923e-02 0.0000000000000000e+00  3.1005869929861110e-02 5.2517936957487209e-02 0.0000000000000000e+00  -3.3833549160308181e-02 -8.5307701423613727e-02 0.0000000000000000e+00  6.9092910118316283e-03 -9.3093192178060363e-02 0.0000000000000000e+00  4.3409378545419014e-05 -4.4300852213588801e-02 0.0000000000000000e+00  -1.7261169118547314e-02 -4.8833994919744030e-02 0.0000000000000000e+00  2.6503315465349854e-03 5.6240057314425147e-03 0.0000000000000000e+00  -5.0137212616406133e-03 2.5958145003872116e-02 0.0000000000000000e+00  -5.4621580572751321e-04 2.1149415084307184e-02 0.0000000000000000e+00  2.5055186088723529e-02 -4.8077670352319905e-02 0.0000000000000000e+00  5.8227963338859226e-02 4.4313971150497157e-02 0.0000000000000000e+00  3.2300688571415451e-02 -4.3607572714005685e-02 0.0000000000000000e+00  -9.6048862153571559e-04 1.7017134453671211e-02 0.0000000000000000e+00  -9.4056956954660306e-02 1.3541297411451463e-03 0.0000000000000000e+00  9.2918290492518943e-02 1.9305697350844492e-02 0.0000000000000000e+00  -8.7450260957332049e-02 -3.3912480462154032e-02 0.0000000000000000e+00  -1.4834898215672956e-02 9.0153400878785084e-03 0.0000000000000000e+00  6.9451253131553334e-04 2.9129711872943366e-02 0.0000000000000000e+00  -6.4725164534843310e-02 6.8396506258553480e-02 0.0000000000000000e+00  -4.5827500397399891e-02 8.3311107723637395e-02 0.0000000000000000e+00  -8.8573280690715503e-02 3.5727483697917027e-02 0.0000000000000000e+00  -7.8155975290309793e-02 5.4206167763885885e-02 0.0000000000000000e+00  9.3539993999304918e-02 -1.4772982063027820e-02 0.0000000000000000e+00  6.6983716256297426e-02 7.2180144381704817e-03 0.0000000000000000e+00  6.0121014416001067e-02 2.7087791253877017e-02 0.0000000000000000e+00  -2.5273900425386839e-02 -8.7659341223827389e-02 0.0000000000000000e+00  -4.3462797484187042e-02 6.7291011995748246e-02 0.0000000000000000e+00  6.4347289110344041e-02 -1.8503602120045246e-02 0.0000000000000000e+00  -7.1577300088608992e-02 3.9600501605793197e-02 0.0000000000000000e+00  -3.4427547627483637e-02 4.9106362408711392e-02 0.0000000000000000e+00  -2.2304100915402057e-02 7.0526995440569923e-02 0.0000000000000000e+00  -3.5785128923025593e-02 8.8559559066300225e-02 0.0000000000000000e+00  -5.6634410848160420e-02 5.5134869501568706e-02 0.0000000000000000e+00  -5.7568246600491341e-02 2.5338049678976217e-02 0.0000000000000000e+00  -6.7999494221923903e-02 2.2641518800483288e-03 0.0000000000000000e+00  -9.2303164444670044e-02 2.5029284412893416e-02 0.0000000000000000e+00  -2.5082733462439930e-02 -7.1119769280654707e-02 0.0000000000000000e+00  -2.9693041795554199e-03 9.5822140885437113e-02 0.0000000000000000e+00  -7.1905549303300592e-02 6.2583812501551872e-02 0.0000000000000000e+00  -1.2030852424455287e-02 -9.4663311669536523e-02 0.0000000000000000e+00  3.3326289807823744e-03 2.6597567809852125e-02 0.0000000000000000e+00  7.0557229188946266e-03 -1.8914390542692196e-02 0.0000000000000000e+00  7.9047932033364642e-03 -1.2271813718291440e-02 0.0000000000000000e+00  -2.6192193261646724e-02 -1.7475536082286233e-02 0.0000000000000000e+00  -1.4182913999376268e-02 -2.9404998124880337e-02 0.0000000000000000e+00  -1.6851986879553929e-02 1.5929360095556896e-02 0.0000000000000000e+00  -8.2720274567291141e-02 -4.7959429265701251e-02 0.0000000000000000e+00  9.5887887878372227e-02 -1.5902214649956970e-04 0.0000000000000000e+00  3.6249818290768010e-02 8.8016835367838095e-02 0.0000000000000000e+00  1.6840648927437495e-02 9.3511977607718372e-02 0.0000000000000000e+00  4.7999862742509197e-02 -7.4577158965359602e-02 0.0000000000000000e+00  1.5658566103386968e-02 -9.4185278964254368e-02 0.0000000000000