<?xml version="1.0"?>
<VTKFile type="UnstructuredGrid"  version="0.1"  >
<UnstructuredGrid>
<Piece  NumberOfPoints="1537" NumberOfCells="2944">
<Points>
<DataArray  type="Float64"  NumberOfComponents="3"  format="ascii">-0.99055405231539 0.3454001927499488 0  -0.9886667667262742 0.2364688811470352 0  -0.9744423732318727 0.1275593461697225 0  -0.9479325129338019 0.02089756592263003 0  -0.9098591128656772 -0.08175543326716722 0  -0.8604865921854591 -0.179826053022512 0  -0.8006063474696057 -0.2715643670434586 0  -0.730905935371258 -0.3561546167952935 0  -0.6536278259442511 -0.4314473226245488 0  -0.5713021626730168 -0.4960185317199103 0  -0.4853438418965387 -0.5501246617171227 0  -0.3950625303500196 -0.5949373664725195 0  -0.3014692389274183 -0.6302604216077484 0  -0.2056843334624165 -0.6556775342240204 0  -0.1076685236722009 -0.6713909348484557 0  -0.0124530489083649 -0.6769174975844205 0  0.07920560182053393 -0.6731787384592679 0  0.1764802956792287 -0.6593121790394141 0  0.271429302460161 -0.6358563952625669 0  0.3652067779138387 -0.6025185105162263 0  0.4553263810757335 -0.5599651448413037 0  0.5417118866594257 -0.5080534713905467 0  0.6236429119874053 -0.4467422570561108 0  0.7013399145699147 -0.3747537711536632 0  0.7727713351012329 -0.2926143909411432 0  0.8350879933556663 -0.2026552576469332 0  0.8871546934059747 -0.10641466480385 0  0.928257272569792 -0.004566997478564854 0  0.9577638480554013 0.1008260326752672 0  0.9752824462277354 0.2089507870127368 0  0.9804936726280209 0.3179405716660799 0  0.973511088887809 0.4266935848545163 0  0.9543353209923205 0.5339120725164419 0  0.9233711864648347 0.6381425809271959 0  0.8808678068323057 0.7381767103718971 0  0.8279703772929535 0.8326699743082528 0  0.7648324116142421 0.9207605932856132 0  0.6923613074863841 1.001128815599661 0  0.6111720044876441 1.073391494436009 0  0.522312912721943 1.136248697760047 0  0.4276776217142194 1.188565866290756 0  0.3273569309305858 1.230523238491812 0  0.2233817946702203 1.261082415842734 0  0.1168129414836806 1.280218792134677 0  0.008518828362929139 1.287642066883461 0  -0.100488831803563 1.283094681631591 0  -0.2078941177846721 1.266668170266325 0  -0.3128159714542772 1.238539875267396 0  -0.4133850410481379 1.199327738473116 0  -0.5095121134911159 1.149412321676882 0  -0.59977664004555 1.089035170048662 0  -0.682611465285043 1.019380132940633 0  -0.7573586149206301 0.9411703484339344 0  -0.8232786133781299 0.8546715510109267 0  -0.8792278808517502 0.7614953046942918 0  -0.9242281793931554 0.6630537105102935 0  -0.9582490729258549 0.5598319329913157 0  -0.9803584978380673 0.4534527454571597 0  -2.796108754923988 0.1010087501228692 0  -2.796107569689644 -0.101011838402431 0  -2.781530798527059 -0.302507516270122 0  -2.752445134301386 -0.5024550775636956 0  -2.709064731773317 -0.6995334231694967 0  -2.651386415107567 -0.8936061428453632 0  -2.580177762744042 -1.082153078980289 0  -2.495238888619485 -1.265717669639452 0  -2.397314945233377 -1.442658322775925 0  -2.287108260708895 -1.611693180631319 0  -2.164813633164303 -1.77256893241231 0  -2.03142343728097 -1.923981900749575 0  -1.887138273195456 -2.065675460398884 0  -1.73315975072577 -2.196465867662095 0  -1.569959484462181 -2.315945680623024 0  -1.399172036381803 -2.422951861922383 0  -1.220463216818802 -2.517684267950193 0  -1.035426719440671 -2.599284098281941 0  -0.8453919667767329 -2.667157621904086 0  -0.6507084180942617 -2.721215206038909 0  -0.4526309190906074 -2.761076175592119 0  -0.2524437850193736 -2.786513925475078 0  -0.05027500580233133 -2.797472196666911 0  0.151240436681582 -2.793833265155824 0  0.3529150340811448 -2.775577253770958 0  0.5518024629504914 -2.742971851746757 0  0.7485162333623305 -2.695928819149125 0  0.9410977535182562 -2.634881343358647 0  1.128771552250962 -2.560106894998389 0  1.310564252672774 -2.471982939188431 0  1.485733113804643 -2.370859648242823 0  1.652547724717498 -2.257756385574425 0  1.811493954259439 -2.13234035971066 0  1.960475309996346 -1.996236050738637 0  2.099445951488576 -1.849526146470298 0  2.22728612786704 -1.693395565585594 0  2.343770815899871 -1.528084156688927 0  2.448035232205371 -1.35480862699906 0  2.53932233698186 -1.17484375669369 0  2.617489091752745 -0.9885224797268628 0  2.68199299986043 -0.7970819910935064 0  2.732522114445814 -0.60144582681916 0  2.768758781029637 -0.4029348685453791 0  2.790645442837222 -0.2016925118454136 0  2.79792951877527 -1.075458008535255e-06 0  2.790645813778668 0.2016919235433141 0  2.768767788203396 0.4027282760545655 0  2.732457881821756 0.6017043733958386 0  2.68205457534609 0.796842523599433 0  2.617459585117133 0.9885139691775078 0  2.539242107762488 1.175002902806082 0  2.447953872255856 1.354968150195955 0  2.343787779606116 1.528099945126411 0  2.227416528333248 1.693234140347487 0  2.099411652851082 1.849565275629348 0  1.960636722984597 1.996069126826854 0  1.811327473710395 2.132454410926096 0  1.652726513870842 2.257600043376608 0  1.485324497602807 2.371116215529269 0  1.310781741349811 2.471888456359635 0  1.128562601193304 2.560220361308328 0  0.9413340992423337 2.634819501959832 0  0.7485181663591839 2.695928805905316 0  0.5518031755214416 2.742972886417634 0  0.3529146609807788 2.775578084046536 0  0.1514756137606048 2.793801659260934 0  -0.05075449710525948 2.797465125749849 0  -0.2520050301666109 2.786552742160854 0  -0.452854536334606 2.761034834505463 0  -0.650680942963564 2.721221444637813 0  -0.8453963812641967 2.667158438373006 0  -1.035430847815123 2.599283363648171 0  -1.220685334435672 2.517599977672806 0  -1.398755517026671 2.423193548451194 0  -1.57014457417905 2.315797773082165 0  -1.733161557220938 2.196464767182681 0  -1.887323444898116 2.065524167860203 0  -2.031114890073999 1.924304033818854 0  -2.164810730694325 1.772530562089092 0  -2.287202887765845 1.61154950899793 0  -2.397427724819048 1.44248271447578 0  -2.495167368672522 1.265908324033647 0  -2.580073973264111 1.082368602874916 0  -2.651537396319975 0.8931531162782066 0  -2.708953499994152 0.6999606566330873 0  -2.75248050566349 0.5022283156141698 0  -2.781525855986758 0.3025351466619544 0  0.08036843526508965 -1.735539960926309 0  -0.9310016439164466 -1.496485234398458 0  1.082949031735514 -1.396243930479105 0  -0.006973798925497047 0.3114034781744651 0  -1.651134565943937 -0.7697813300746944 0  1.702135512800948 -0.6566603092459643 0  -1.890031345050587 0.1294374830170501 0  1.879446336082178 0.2531063791710246 0  -1.717467814835943 0.9461738845122423 0  1.656826285797216 1.051931823447226 0  -1.194217092568352 1.62203554656139 0  1.135197816704272 1.664303600633354 0  -0.4539653630072569 1.987412269587145 0  0.3324934405975307 2.01550455762546 0  -0.5294705674595864 -2.046247631966935 0  0.7900918766191903 -1.988499353350261 0  -1.594202691699151 -1.426796051103944 0  1.698073325574776 -1.39205756683498 0  -2.166117554489962 -0.4801477797380704 0  -0.2667658140069264 -1.255932505123667 0  0.4620404641543547 -1.246981144112583 0  2.176187684809064 -0.2724914343730116 0  -1.018147486460058 -0.9103952258052178 0  1.118317584284297 -0.8060044001707825 0  0.204274896323631 -2.263054402979384 0  -1.058512587310661 -2.014458371104198 0  2.118431790540878 0.7545637543822616 0  1.299844220703256 -1.874777601412876 0  -2.167249235690941 0.6386734814972957 0  1.403589833867158 -0.2244848877849148 0  -1.454550132454862 -0.243545655574176 0  -2.002730909253531 -1.134271351399972 0  0.4822832877699257 0.4006208428993893 0  -0.5002131728227313 0.3598036697325168 0  0.01036732208706423 -0.1720067468654307 0  0.1542385316963779 0.7739079711876962 0  -1.71273800106796 1.4866849619043 0  1.649031014355472 1.577796407374707 0  2.053481814313352 -1.029151698115802 0  -1.498957160677953 0.4679550331798057 0  0.8477299864297648 2.1192395596355 0  -0.9583723624357825 2.080079510766303 0  -2.331533777064005 -0.04084645354839583 0  1.439343448220558 0.4163538512886555 0  2.33382453870341 0.1593587902699891 0  -0.07159685692153893 2.304867246718182 0  1.183824892418836 1.172975031934995 0  -1.248748821105164 1.119708036405484 0  0.6439430116111453 1.630888453569521 0  2.065658601588391 1.176041941997753 0  -2.127850669076937 1.059970555408141 0  -0.6724423530450289 -1.154233764277505 0  -0.6701323832304364 1.579089993105274 0  -0.05159518413498092 1.749168724615793 0  -0.3266470833072668 -1.672907266264519 0  1.490893675892545 -1.020417770447793 0  -1.13632680149115 -0.5177172599597764 0  0.7150047941228983 -1.579077018316281 0  1.295207679102746 0.7874904657965281 0  -0.2975035832602125 0.7612394997803926 0  0.7062931086418072 -0.9140221211576413 0  0.4170920773774977 -0.0310357979550316 0  -1.289887296810649 -1.687663245028965 0  -0.4007490091810296 -0.06399918580551867 0  -0.2208014041671809 -2.353390529554297 0  -1.53073667979267 1.848714548436956 0  1.443340678039606 1.920521674333704 0  -0.6525810353313433 2.328242001556075 0  2.281259434902189 -0.6772591890992049 0  -1.235604901175002 -1.245645675278578 0  0.2996148131383736 2.399147730097826 0  1.788220578822962 -0.2881154109068597 0  0.09699478652312618 -1.340591047051425 0  0.4425697875544266 -1.83468406080585 0  1.736215201580438 0.6742937489841836 0  -0.9516068393216973 1.33849884140144 0  -1.78913288839378 -0.4239469439696291 0  -1.353135509672346 0.1152243538975468 0  1.071010047346186 -2.211248526929283 0  0.5940489838253252 -2.332851671655084 0  0.8606297345597599 1.336882369966383 0  -1.645353279182513 -1.791433319034587 0  -2.407128322559526 0.3467474160561667 0  0.2837620798037863 1.615299902338374 0  -1.276484682179515 0.753570620016541 0  -0.8123328213930515 -2.296042530250675 0  -2.267896909066536 -0.8523415743261787 0  0.1968137242964038 -1.014133962081724 0  -0.7767955453049356 -1.804965085688324 0  -0.1679160925448163 -1.995242711907079 0  -1.818541182444719 0.6160155151280337 0  1.654548468904839 -1.811679712802458 0  -1.949983186065057 -1.488117699115833 0  1.645888675098885 0.009707926106665109 0  -1.666657215414686 -1.101936178
[...]
<PointData  Vectors="f_5101-0"> 
<DataArray  type="Float64"  Name="f_5101-0"  NumberOfComponents="3" format="ascii">-5.2699929464310050e-03 -5.5344471861185809e-02 0.0000000000000000e+00  8.1461688780668159e-03 -6.5036667610841453e-02 0.0000000000000000e+00  2.4211199343513581e-02 -7.5854218109443206e-02 0.0000000000000000e+00  4.3638754512437067e-02 -8.5193968488556079e-02 0.0000000000000000e+00  6.4582267032923760e-02 -9.0214407766665602e-02 0.0000000000000000e+00  8.7697163813774043e-02 -9.4115211841872187e-02 0.0000000000000000e+00  1.1130446264452119e-01 -9.3163662154464227e-02 0.0000000000000000e+00  1.3473692482971650e-01 -8.8098182357044530e-02 0.0000000000000000e+00  1.5138593863859245e-01 -7.4176197820380582e-02 0.0000000000000000e+00  1.5436785331345448e-01 -5.0840085643684967e-02 0.0000000000000000e+00  1.4539122757018758e-01 -2.4282551370117755e-02 0.0000000000000000e+00  1.3108621376595903e-01 -3.4782477820188872e-04 0.0000000000000000e+00  1.1146498796075503e-01 2.0680445207081777e-02 0.0000000000000000e+00  8.5890371859474443e-02 3.7873613217892878e-02 0.0000000000000000e+00  5.8916404521914843e-02 4.9406370570082056e-02 0.0000000000000000e+00  1.7343733720593113e-02 5.5899660064208025e-02 0.0000000000000000e+00  -3.6809722840187131e-02 5.2936749517157718e-02 0.0000000000000000e+00  -6.7510998059948576e-02 4.3319157355173110e-02 0.0000000000000000e+00  -9.6275450153635020e-02 2.8182128794930622e-02 0.0000000000000000e+00  -1.1778677757132903e-01 9.5206409615569455e-03 0.0000000000000000e+00  -1.3631603906919371e-01 -1.4591248077423364e-02 0.0000000000000000e+00  -1.4825793844641344e-01 -4.0257070578936141e-02 0.0000000000000000e+00  -1.5290087373367936e-01 -6.6821760859985327e-02 0.0000000000000000e+00  -1.4380799938305830e-01 -8.6788122488074923e-02 0.0000000000000000e+00  -1.2333433263084971e-01 -9.5902259936797893e-02 0.0000000000000000e+00  -1.0031556335250655e-01 -9.8935258230901241e-02 0.0000000000000000e+00  -7.7402587392448041e-02 -9.7914898290355060e-02 0.0000000000000000e+00  -5.5069971894531437e-02 -9.2615191866375624e-02 0.0000000000000000e+00  -3.5070556403947122e-02 -8.5275298126057164e-02 0.0000000000000000e+00  -1.7594798460292806e-02 -7.5371016822854159e-02 0.0000000000000000e+00  -3.0032545143633348e-03 -6.5191218083530317e-02 0.0000000000000000e+00  9.2615843747910348e-03 -5.4448732961452584e-02 0.0000000000000000e+00  1.9249117026487191e-02 -4.2618955255580168e-02 0.0000000000000000e+00  2.6990276181823012e-02 -3.0858902748998929e-02 0.0000000000000000e+00  3.2319676323087104e-02 -1.8729363600092599e-02 0.0000000000000000e+00  3.6394694345276001e-02 -8.0900518500229210e-03 0.0000000000000000e+00  3.8263397664558552e-02 2.7696788755046200e-03 0.0000000000000000e+00  3.8750310216978938e-02 1.2576944701358466e-02 0.0000000000000000e+00  3.6599246182095001e-02 2.2817601954359459e-02 0.0000000000000000e+00  3.2055378735086917e-02 3.2214594094254756e-02 0.0000000000000000e+00  2.8626794497159002e-02 3.8825147135227021e-02 0.0000000000000000e+00  2.1879917104011420e-02 4.5327349777043890e-02 0.0000000000000000e+00  1.5523720516998567e-02 4.9725024276410977e-02 0.0000000000000000e+00  9.0166547726801775e-03 5.2617936914239966e-02 0.0000000000000000e+00  1.5244234831462053e-03 5.4143789896520883e-02 0.0000000000000000e+00  -7.9309237326965765e-03 5.3829166700678825e-02 0.0000000000000000e+00  -1.5768403006756710e-02 5.1712896311069130e-02 0.0000000000000000e+00  -2.3657076299621445e-02 4.7680072398028017e-02 0.0000000000000000e+00  -2.8249396679081010e-02 4.2972010312963375e-02 0.0000000000000000e+00  -3.3082880430575660e-02 3.6614808631807834e-02 0.0000000000000000e+00  -3.7397452924546791e-02 2.8406305118187453e-02 0.0000000000000000e+00  -3.9447701421388176e-02 1.9849730115906634e-02 0.0000000000000000e+00  -3.9752008326831227e-02 1.0756290894518085e-02 0.0000000000000000e+00  -3.9470246516988473e-02 -6.0178756619886753e-04 0.0000000000000000e+00  -3.7025357739047901e-02 -1.2214569744262167e-02 0.0000000000000000e+00  -3.1920691656392462e-02 -2.2554995982203178e-02 0.0000000000000000e+00  -2.5376875823904552e-02 -3.4371691236291149e-02 0.0000000000000000e+00  -1.6418085164530739e-02 -4.5554188275786875e-02 0.0000000000000000e+00  -1.6666210377240462e-01 6.0045660844602940e-03 0.0000000000000000e+00  -1.6665621088517951e-01 -6.0195197966371383e-03 0.0000000000000000e+00  -1.6579153197662125e-01 -1.8020305767592643e-02 0.0000000000000000e+00  -1.6402533973218233e-01 -3.0074364627235887e-02 0.0000000000000000e+00  -1.6168984119944002e-01 -4.0688046470041379e-02 0.0000000000000000e+00  -1.5761244881305569e-01 -5.4393405556244966e-02 0.0000000000000000e+00  -1.5422254993618312e-01 -6.3348914576432228e-02 0.0000000000000000e+00  -1.4859827959774446e-01 -7.5374606057354049e-02 0.0000000000000000e+00  -1.4231275442589311e-01 -8.6875128694645254e-02 0.0000000000000000e+00  -1.3640109242243370e-01 -9.5940921053760092e-02 0.0000000000000000e+00  -1.2893734156517159e-01 -1.0575898045061391e-01 0.0000000000000000e+00  -1.2178267142586938e-01 -1.1388953251783365e-01 0.0000000000000000e+00  -1.1242477565525122e-01 -1.2303443696190464e-01 0.0000000000000000e+00  -1.0323257084372800e-01 -1.3084167586732495e-01 0.0000000000000000e+00  -9.2537505756094374e-02 -1.3869326128010198e-01 0.0000000000000000e+00  -8.4447031789977450e-02 -1.4376373311108273e-01 0.0000000000000000e+00  -7.2685505859470173e-02 -1.4993802753771160e-01 0.0000000000000000e+00  -6.0721642632586559e-02 -1.5528793870041280e-01 0.0000000000000000e+00  -5.0508276284578157e-02 -1.5892854343236287e-01 0.0000000000000000e+00  -3.8787002157473112e-02 -1.6220321879376715e-01 0.0000000000000000e+00  -2.6856113251381264e-02 -1.6458378968892462e-01 0.0000000000000000e+00  -1.6076466732033560e-02 -1.6596190155589657e-01 0.0000000000000000e+00  -1.7767665201803722e-03 -1.6672167505663052e-01 0.0000000000000000e+00  7.8085914575828337e-03 -1.6654779790132843e-01 0.0000000000000000e+00  2.2240374168015147e-02 -1.6524096435759333e-01 0.0000000000000000e+00  3.1672274101813835e-02 -1.6369742049974692e-01 0.0000000000000000e+00  4.4564243360453566e-02 -1.6059768556834936e-01 0.0000000000000000e+00  5.6039829693428356e-02 -1.5692110469908555e-01 0.0000000000000000e+00  6.7218784579709631e-02 -1.5247491829093782e-01 0.0000000000000000e+00  7.8064416646136059e-02 -1.4722277326720787e-01 0.0000000000000000e+00  8.9575363038990330e-02 -1.4062562725905919e-01 0.0000000000000000e+00  9.7487097149570615e-02 -1.3526055188230071e-01 0.0000000000000000e+00  1.0874377158007480e-01 -1.2639627775155982e-01 0.0000000000000000e+00  1.1674834380060078e-01 -1.1908195692852952e-01 0.0000000000000000e+00  1.2522549423570128e-01 -1.1013094397547843e-01 0.0000000000000000e+00  1.3210257190577512e-01 -1.0174500989215997e-01 0.0000000000000000e+00  1.3961223853220059e-01 -9.1017761777762829e-02 0.0000000000000000e+00  1.4638737583066011e-01 -7.9819687516354834e-02 0.0000000000000000e+00  1.5129247805610793e-01 -7.0139158839183244e-02 0.0000000000000000e+00  1.5602066061181757e-01 -5.8903068733872715e-02 0.0000000000000000e+00  1.5985246981494378e-01 -4.7532110261046069e-02 0.0000000000000000e+00  1.6288963411871013e-01 -3.5712949738797579e-02 0.0000000000000000e+00  1.6484117189142797e-01 -2.5049218722464437e-02 0.0000000000000000e+00  1.6637026985125858e-01 -1.1000230703429949e-02 0.0000000000000000e+00  1.6675413281695572e-01 -5.2975868054363492e-06 0.0000000000000000e+00  1.6637220312546236e-01 1.0996288975382275e-02 0.0000000000000000e+00  1.6489243211015292e-01 2.3983964675594136e-02 0.0000000000000000e+00  1.6255991082361937e-01 3.7045604206199928e-02 0.0000000000000000e+00  1.6017090048781951e-01 4.6298737864830630e-02 0.0000000000000000e+00  1.5587498196465802e-01 5.8861142011231306e-02 0.0000000000000000e+00  1.5087866102985675e-01 7.0963753240419800e-02 0.0000000000000000e+00  1.4596504089756424e-01 8.0643591847697635e-02 0.0000000000000000e+00  1.3969752616971434e-01 9.1093286540603474e-02 0.0000000000000000e+00  1.3277294686781760e-01 1.0091295407498591e-01 0.0000000000000000e+00  1.2505106827503251e-01 1.1032974079702526e-01 0.0000000000000000e+00  1.1758135575577434e-01 1.1822268889790419e-01 0.0000000000000000e+00  1.0789021916975881e-01 1.2698679792443610e-01 0.0000000000000000e+00  9.8410205968666425e-02 1.3446035008287210e-01 0.0000000000000000e+00  8.7468061989931525e-02 1.4194872591916413e-01 0.0000000000000000e+00  7.9182151221902336e-02 1.4673217818747214e-01 0.0000000000000000e+00  6.6137823556140160e-02 1.5305588949156196e-01 0.0000000000000000e+00  5.7257834264804214e-02 1.5659653457597020e-01 0.0000000000000000e+00  4.4575667184785978e-02 1.6059702883875007e-01 0.0000000000000000e+00  3.1675572928006671e-02 1.6370262433986449e-01 0.0000000000000000e+00  2.2239362082735633e-02 1.6524511165153985e-01 0.0000000000000000e+00  9.0214461965477249e-03 1.6638982122019377e-01 0.0000000000000000e+00  -4.2501593941656150e-03 1.6668491541650429e-01 0.0000000000000000e+00  -1.3811726295041687e-02 1.6616194403707413e-01 0.0000000000000000e+00  -2.8009936487360106e-02 1.6437176971926221e-01 0.0000000000000000e+00  -3.8647221660646408e-02 1.6223449345260540e-01 0.0000000000000000e+00  -5.0529675393054370e-02 1.5893269409870098e-01 0.0000000000000000e+00  -6.0743910770622404e-02 1.5528339862126381e-01 0.0000000000000000e+00  -7.3828902095250989e-02 1.4949812160772194e-01 0.0000000000000000e+00  -8.2297723562938699e-02 1.4501050610550992e-01 0.0000000000000000e+00  -9.3495508785661610e-02 1.3793383528007416e-01 0.0000000000000000e+00  -1.0324080677784918e-01 1.3083653099847548e-01 0.0000000000000000e+00  -1.1337897111633861e-01 1.2224964998670325e-01 0.0000000000000000e+00  -1.2018965995998176e-01 1.1555252482099415e-01 0.0000000000000000e+00  -1.2892715914468250e-01 1.0556499956852750e-01 0.0000000000000000e+00  -1.3689283593535359e-01 9.5197075560061059e-02 0.0000000000000000e+00  -1.4289315325095567e-01 8.5967244553009484e-02 0.0000000000000000e+00  -1.4822370433234719e-01 7.6357385840102265e-02 0.0000000000000000e+00  -1.5369020191028515e-01 6.4461920757011362e-02 0.0000000000000000e+00  -1.5839071143129985e-01 5.2058844442909633e-02 0.0000000000000000e+00  -1.6111602987513410e-01 4.2890623854163722e-02 0.0000000000000000e+00  -1.6420923345519492e-01 2.8905090152501017e-02 0.0000000000000000e+00  -1.6576613722705191e-01 1.8161118319315387e-02 0.0000000000000000e+00  -7.6168363788227487e-04 -6.1397710915144295e-02 0.0000000000000000e+00  -1.7955021478196307e-02 -8.0711411471809866e-02 0.0000000000000000e+00  2.7611683289407836e-02 -8.0945521824994843e-02 0.0000000000000000e+00  -4.8088604020231811e-03 8.2764677450298932e-02 0.0000000000000000e+00  -5.8265715242733274e-02 -5.5325000410950190e-02 0.0000000000000000e+00  6.3005222207831293e-02 -5.0043699896274302e-02 0.0000000000000000e+00  -8.5174146503066497e-02 -2.9454560444239244e-02 0.0000000000000000e+00  8.5732404281704144e-02 -2.2693726485060409e-02 0.0000000000000000e+00  -1.0169606287857905e-01 1.4205581066068503e-02 0.0000000000000000e+00  1.0014897425690225e-01 2.1303664163846495e-02 0.0000000000000000e+00  -8.6177145726248933e-02 7.1408333976127017e-02 0.0000000000000000e+00  8.3835848555608064e-02 7.3578743254991613e-02 0.0000000000000000e+00  -3.4918868014073977e-02 1.0994005545688827e-01 0.0000000000000000e+00  2.8625278604097856e-02 1.1134098779624592e-01 0.0000000000000000e+00  -2.2381255072043898e-02 -1.1531320256484796e-01 0.0000000000000000e+00  3.5755439664609111e-02 -1.1675998186851423e-01 0.0000000000000000e+00  -8.6128787383674826e-02 -8.8684728207325078e-02 0.0000000000000000e+00  9.6877931068657760e-02 -8.7691750051484316e-02 0.0000000000000000e+00  -1.2239347139292368e-01 -4.2984112976086862e-02 0.0000000000000000e+00  4.2045223908802630e-02 -2.4252382469707096e-02 0.0000000000000000e+00  -4.3330599643536707e-02 -4.6607446267185354e-02 0.0000000000000000e+00  1.2215245924962162e-01 -3.1398438684896030e-02 0.0000000000000000e+00  2.1196079911986614e-02 -5.9478605593539062e-02 0.0000000000000000e+00  -1.3318730671765172e-02 -5.8514096988298223e-02 0.0000000000000000e+00  9.6537175815875204e-03 -1.3514047861096221e-01 0.0000000000000000e+00  -5.8692150800995949e-02 -1.2494170742324121e-01 0.0000000000000000e+00  1.3247063402334075e-01 2.0692515892340550e-02 0.0000000000000000e+00  7.3945990308478177e-02 -1.1812122972543643e-01 0.0000000000000000e+00  -1.3501197245291813e-01 1.3494196065592573e-02 0.0000000000000000e+00  -6.0216526510813309e-03 -5.4219031240102071e-02 0.0000000000000000e+00  -3.7208142800593670e-03 -5.3773438332877010e-02 0.0000000000000000e+00  -1.1890844012056039e-01 -7.3957547266593690e-02 0.0000000000000000e+00  1.7679071556156650e-02 3.8829079918481967e-02 0.0000000000000000e+00  -2.1515320608329717e-02 3.6867398477138040e-02 0.0000000000000000e+00  -1.4787445147729936e-02 1.2738136418151050e-01 0.0000000000000000e+00  9.2767200683515141e-03 6.7952975041455435e-02 0.0000000000000000e+00  -1.1934696348130065e-01 7.0081930956520586e-02 0.0000000000000000e+00  1.1618953743268670e-01 7.7232501706545206e-02 0.0000000000000000e+00  1.2274264200954008e-01 -6.7084333822168468e-02 0.0000000000000000e+00  -4.7997654528588840e-02 -3.4634119705219686e-02 0.0000000000000000e+00  6.6045808983782026e-02 1.2361719938699282e-01 0.0000000000000000e+00  -7.2235787124107165e-02 1.2123883787870936e-01 0.0000000000000000e+00  -1.4105081118044077e-01 -1.9342122239586684e-02 0.0000000000000000e+00  3.3953650649431802e-02 -4.1751994737773017e-02 0.0000000000000000e+00  1.4252612150791316e-01 -6.5258536493855001e-03 0.0000000000000000e+00  -3.9983447584314470e-03 1.4255794969978688e-01 0.0000000000000000e+00  6.8825899650945668e-02 1.5401818526725017e-02 0.0000000000000000e+00  -7.2257639881055144e-02 1.4159535227849499e-02 0.0000000000000000e+00  4.9290222493069864e-02 6.6860225889307456e-02 0.0000000000000000e+00  1.3769178120064454e-01 5.3868875618879444e-02 0.0000000000000000e+00  -1.4075906678854574e-01 4.5754646141866771e-02 0.0000000000000000e+00  3.8461484903048473e-02 -6.5002218023721997e-02 0.0000000000000000e+00  -4.8176365601880385e-02 6.3528107006374471e-02 0.0000000000000000e+00  -2.0145908567966242e-03 8.4516225426693001e-02 0.0000000000000000e+00  4.0858228808579528e-03 -6.1304725162664317e-02 0.0000000000000000e+00  5.4693825180168763e-02 -6.4696883047704309e-02 0.0000000000000000e+00  4.9555670694806049e-02 -5.6658893437769371e-02 0.0000000000000000e+00  4.7878666233544280e-03 -7.5717290982332056e-02 0.0000000000000000e+00  5.2089612941660778e-02 -2.0231586354546541e-02 0.0000000000000000e+00  -2.2740167873832338e-02 6.1135411310551259e-02 0.0000000000000000e+00  -5.7203242574483483e-02 -6.4309104898631078e-02 0.0000000000000000e+00  -3.3383885150457294e-02 5.8849727285729472e-02 0.0000000000000000e+00  -6.6199926138671331e-02 -1.0289815311982523e-01 0.0000000000000000e+00  2.9957867457570470e-02 6.2246458827761260e-02 0.0000000000000000e+00  -1.2365632513607044e-02 -1.4474676584290300e-01 0.0000000000000000e+00  -1.0950803836736990e-01 1.0384860126504246e-01 0.0000000000000000e+00  1.0453125077401085e-01 1.0894253090665562e-01 0.0000000000000000e+00  -4.8277603006594373e-02 1.4463939687494271e-01 0.0000000000000000e+00  1.3910842288081615e-01 -4.7889289653772690e-02 0.0000000000000000e+00  -3.4698715788875414e-02 -7.3676887150730092e-02 0.0000000000000000e+00  2.4107563689271510e-02 1.5032505190369566e-01 0.0000000000000000e+00  6.4163064245044032e-02 -4.0711101658033516e-02 0.0000000000000000e+00  -1.1615210897316566e-02 -9.1868812817895024e-03 0.0000000000000000e+00  7.8877696449671034e-03 -8.6785701507816254e-02 0.0000000000000000e+00  8.7652346952784996e-02 -7.2053848734092768e-03 0.0000000000000000e+00  -6.1572098620866135e-02 3.6010129156433875e-02 0.0000000000000000e+00  -6.5944508161719456e-02 -4.6574974668980480e-02 0.0000000000000000e+00  -4.4719740186379411e-03 -5.9000251467807470e-02 0.0000000000000000e+00  6.3789073648104502e-02 -1.4080215414442135e-01 0.0000000000000000e+00  3.3213851506859890e-02 -1.4607060663809612e-01 0.0000000000000000e+00  5.7588320742618722e-02 3.2666386742197344e-02 0.0000000000000000e+00  -1.0195822322567423e-01 -1.1399411191182510e-01 0.0000000000000000e+00  -1.5192303882188762e-01 5.6552860397979165e-03 0.0000000000000000e+00  2.3127863346049844e-02 6.7615861052106999e-02 0.0000000000000000e+00  -4.9347040708209826e-02 -2.2855229786551814e-02 0.0000000000000000e+00  -4.7855904670165136e-02 -1.4480556816389048e-01 0.0000000000000000e+00  -1.3916491544291107e-01 -5.8620693428697350e-02 0.0000000000000000e+00  -6.1761951685323675e-02 -9.6292424006074843e-03 0.0000000000000000e+00  -2.6155028421773877e-02 -9.7885503193489654e-02 0.0000000000000000e+00  -5.1946010942642640e-03 -1.0070761107432559e-01 0.0000000000000000e+00  -9.5639264735613350e-02 -7.2657057951000205e-03 0.0000000000000000e+00  1.0288719823564499e-01 -1.1566574704752110e-01 0.0000000000000000e+00  -1.2166268436297226e-01 -9.4775330404292479e-02 0.0000000000000000e+00  4.1265453910748116e-02 -4.1761205440438424e-02 0.0000000000000000e+00  -7.8883622585192506e-02 -6.9810162959863406e-02 0.0000000000000000e+00  1.2800943784002691e-01 -8.7202049465987405e-02 0.0000000000000000e+00  -1.0001640022659354e-01 -3.5178719589587348e-02 0.0000000000000000e+00  1.5855216778949124e-03 -5.1025418774628344e-02 0.0000000000000000e+00  4.0446250869556277e-02 -1.0100243993322279e-01 0.0000000000000000e+00  -1.0405163231692761e-02 -6.2700433160919583e-02 0.0000000000000000e+00  -9.1686424311239537e-03 -5.4538929005410068e-02 0.0000000000000000e+00  -2.3927653756079144e-02 6.6295058683077390e-02 0.0000000000000000e+00  -1.5335085436360577e-01 -3.1116315153345162e-02 0.0000000000000000e+00  -6.9139792038997325e-02 -6.6982074136267153e-02 0.0000000000000000e+00  1.2820111426586824e-02 -6.2053843340682480e-02 0.0000000000000000e+00  1.5145725918959521e-01 1.7027364259412401e-02 0.0000000000000000e+00  2.8590102930235766e-02 3.7393289042361846e-02 0.0000000000000000e+00  -1.7925344520317774e-02 -6.9060283519156246e-02 0.0000000000000000e+00  8.1717357678348673e-02 -4.2680334281367367e-02 0.0000000000000000e+00  8.6864481137293684e-02 1.2893977293320810e-01 0.0000000000000000e+00  -8.6179148730636673e-02 -1.2891489073656923e-01 0.0000000000000000e+00  7.6362077927834004e-02 -6.3342952140295561e-02 0.0000000000000000e+00  7.0638442451020092e-02 -9.5352361233377161e-02 0.0000000000000000e+00  1.5414140546946645e-01 -1.7239571911922151e-02 0.0000000000000000e+00  -9.1186244417592571e-02 1.0797347374931349e-01 0.0000000000000000e+00  -1.0236729460308684e-01 -5.4486754819588756e-02 0.0000000000000000e+00  4.8102649780942350e-02 1.4827011177794250e-01 0.0000000000000000e+00  9.6614986128946923e-02 4.0329489318811300e-02 0.0000000000000000e+00  1.0107333686144390e-01 -4.3964931928902135e-02 0.0000000000000000e+00  9.3322321553426360e-02 -2.8893202436152184e-02 0.0000000000000000e+00  4.6246125542934488e-02 7.3242093641643809e-03 0.0000000000000000e+00  -7.7214180417619474e-02 -6.5313756104535214e-02 0.0000000000000000e+00  -1.2480289162068230e-01 4.8396046676701318e-02 0.0000000000000000e+00  -9.9667169900942001e-02 3.3675369230436132e-02 0.0000000000000000e+00  -2.2263576904873662e-02 1.5736667145195371e-01 0.0000000000000000e+00  -1.3699641810882247e-02 -4.5498612535994479e-02 0.0000000000000000e+00  4.8620504713746404e-03 -6.8970722170521304e-02 0.0000000000000000e+00  -3.1234439303532674e-02 -1.5315210670157967e-01 0.0000000000000000e+00  1.3382862870464798e-01 7.9669570932730194e-02 0.0000000000000000e+00  2.2616909570850928e-03 -1.5803481635515365e-01 0.0000000000000000e+00  1.5025692980671448e-01 4.8858489243931422e-02 0.0000000000000000e+00  -1.3549131473933504e-01 8.3645755089948814e-02 0.0000000000000000e+00  1.1861855345300550e-01 -1.0321213079111065e-01 0.0000000000000000e+00  -3.2704313256632145e-02 2.5202236878570025e-02 0.0000000000000000e+00  1.5076198595501383e-01 -3.3160259356399192e-02 0.00