<?xml version="1.0"?>
<VTKFile type="UnstructuredGrid"  version="0.1"  >
<UnstructuredGrid>
<Piece  NumberOfPoints="1025" NumberOfCells="1947">
<Points>
<DataArray  type="Float64"  NumberOfComponents="3"  format="ascii">-0.9978354042878017 0.1029614215678016 0  -0.9944169459127968 -0.003958956324954647 0  -0.978846797997681 -0.109845455492333 0  -0.9513670846819459 -0.2133255601833375 0  -0.9124020499904777 -0.3131061273818113 0  -0.8625407612197881 -0.4079335745834785 0  -0.802440651288461 -0.4964631804290629 0  -0.7329131094697459 -0.5773679165444906 0  -0.6554466125035486 -0.6497756887062189 0  -0.5708789407575806 -0.7127593214790275 0  -0.4803714146101222 -0.7663579930702472 0  -0.3850527325885072 -0.8103822026135803 0  -0.2856696847478794 -0.8445682736439803 0  -0.1835437756513802 -0.8686552286401458 0  -0.07946468908822607 -0.88230006675734 0  0.02541500713059327 -0.8855791611971131 0  0.1299948965694794 -0.8768505808291248 0  0.2332474017618522 -0.8580361807182804 0  0.3342094423621047 -0.8287401543219736 0  0.431552247582639 -0.7895787949504085 0  0.5246161675996166 -0.7406016926742612 0  0.6121593025128931 -0.6822549043410014 0  0.6933327730980596 -0.6145183603510376 0  0.7670459985628024 -0.5378035411329471 0  0.8320439644021167 -0.4529955005512834 0  0.8873575660538024 -0.3613769742370902 0  0.9319892596611373 -0.2641015455957593 0  0.9653641434653049 -0.1623781472022671 0  0.9871119107606982 -0.05761136880990856 0  0.9968417918406312 0.04893148892819878 0  0.9943280606013465 0.1558112750945818 0  0.9798612728181968 0.2617437212203988 0  0.9534214101210787 0.365278825133649 0  0.9155672332619987 0.4652438071039263 0  0.866944620363684 0.5604176515574871 0  0.8082607702580588 0.649701105888624 0  0.7400123463718211 0.7320308750323045 0  0.6632190572509299 0.8063475554071328 0  0.5787928161376357 0.872022100397924 0  0.487829559260901 0.9283371126844209 0  0.3914170273574716 0.9747875720548308 0  0.2906882127794745 1.010777246538671 0  0.1866521360108844 1.035942490162269 0  0.08045176448044609 1.050206619998875 0  -0.0266174407771235 1.052722519923602 0  -0.1333542263105779 1.044103710169886 0  -0.2386293610418404 1.024401309971651 0  -0.3410630473874679 0.9937088691318871 0  -0.439810987179146 0.9525877288677106 0  -0.5336673287963717 0.9013327948419596 0  -0.6214802419924916 0.8403400644387033 0  -0.7022229166962645 0.7702197953583946 0  -0.7749822654867587 0.6919459296552879 0  -0.8387331044466751 0.6061487112723908 0  -0.8927940767127388 0.5139426675309193 0  -0.9361907179005059 0.4162871107872164 0  -0.9685339292574755 0.3144041648011824 0  -0.9892365841248225 0.2095471616658732 0  2.206932466084181 0 0  2.198048004803364 0.1978279010563361 0  2.171466153419167 0.3940630081742888 0  2.127400933369061 0.5871253516557187 0  2.066207131894959 0.7754605070297328 0  1.988377445504958 0.9575521103645378 0  1.894538513070756 1.131934067138211 0  1.785445870499915 1.29720235636974 0  1.661977867604978 1.452026334970414 0  1.525128596147248 1.595159451299565 0  1.375999885994432 1.72544928166542 0  1.21579243383442 1.841846808963053 0  1.045796135871547 1.943414868743301 0  0.867379702340807 2.029335694709867 0  0.6819796374578242 2.098917502892693 0  0.4910886735315642 2.151600061485734 0  0.2962437523614919 2.18695920150404 0  0.09901365068591043 2.204710231943022 0  -0.09901365068591016 2.204710231943022 0  -0.2962437523614916 2.18695920150404 0  -0.4910886735315639 2.151600061485734 0  -0.681979637457824 2.098917502892693 0  -0.8673797023408062 2.029335694709867 0  -1.045796135871547 1.943414868743301 0  -1.215792433834419 1.841846808963053 0  -1.375999885994432 1.72544928166542 0  -1.525128596147248 1.595159451299565 0  -1.661977867604978 1.452026334970414 0  -1.785445870499914 1.29720235636974 0  -1.894538513070756 1.131934067138211 0  -1.988377445504958 0.9575521103645381 0  -2.066207131894959 0.775460507029733 0  -2.127400933369061 0.5871253516557189 0  -2.171466153419167 0.394063008174289 0  -2.198048004803364 0.1978279010563364 0  -2.206932466084181 2.702712780524366e-16 0  -2.198048004803364 -0.1978279010563359 0  -2.171466153419167 -0.3940630081742885 0  -2.127400933369061 -0.5871253516557184 0  -2.066207131894959 -0.7754605070297326 0  -1.988377445504958 -0.9575521103645376 0  -1.894538513070757 -1.13193406713821 0  -1.785445870499915 -1.29720235636974 0  -1.661977867604979 -1.452026334970414 0  -1.525128596147249 -1.595159451299564 0  -1.375999885994432 -1.72544928166542 0  -1.21579243383442 -1.841846808963053 0  -1.045796135871548 -1.943414868743301 0  -0.8673797023408072 -2.029335694709867 0  -0.6819796374578244 -2.098917502892693 0  -0.4910886735315644 -2.151600061485734 0  -0.2962437523614921 -2.18695920150404 0  -0.0990136506859107 -2.204710231943022 0  0.09901365068590991 -2.204710231943022 0  0.2962437523614914 -2.18695920150404 0  0.4910886735315637 -2.151600061485734 0  0.6819796374578236 -2.098917502892693 0  0.8673797023408064 -2.029335694709867 0  1.045796135871547 -1.943414868743302 0  1.215792433834419 -1.841846808963053 0  1.375999885994432 -1.72544928166542 0  1.525128596147247 -1.595159451299565 0  1.661977867604978 -1.452026334970414 0  1.785445870499914 -1.297202356369741 0  1.894538513070756 -1.131934067138211 0  1.988377445504958 -0.9575521103645384 0  2.066207131894959 -0.7754605070297332 0  2.127400933369061 -0.5871253516557191 0  2.171466153419167 -0.3940630081742893 0  2.198048004803363 -0.1978279010563367 0  0.0002021948566419407 0.08375710414014437 0  0.1327900620544055 -1.541207045230734 0  -0.5495642208253688 -1.450189330833163 0  0.782351916837252 -1.343245023108473 0  -1.132955469846049 -1.083216341674144 0  1.315006076707681 -0.8680279112938734 0  -1.510712374549025 -0.4908602058337608 0  1.576783340001342 -0.2346575558457072 0  -1.593651806977702 0.2046687225363319 0  1.543325537117944 0.4607796910975265 0  -1.372545253537104 0.8571749047371034 0  1.270514416461755 1.013201437319705 0  0.6913714255021407 1.474090540274675 0  -0.95757378860637 1.317987250154892 0  -0.2926532089775234 1.604172659570053 0  -0.4949466082391181 0.0153979678051101 0  0.4993730855682456 0.09070085711709487 0  0.1984579657156287 1.532314779363827 0  -0.2998164149636916 0.4709414962940626 0  0.2518218269143613 -0.3351574156219538 0  0.2439612010619382 0.506078676187937 0  -0.2398796159216313 -0.3708603706375299 0  1.214143938476745 -1.29110030535077 0  0.5345563250725281 -1.694833766019679 0  -0.3238415543333477 -1.784514049069271 0  -0.9326561289023976 -1.561003424982462 0  -1.520397812412837 -1.003605808992668 0  1.81776657381081 0.08163599096159142 0  1.668630124694163 -0.6434011433555005 0  -1.812232954002164 -0.2454836332006256 0  -1.694182149335417 0.6024490616157215 0  1.106506655699832 1.401426583769686 0  0.8457125674420929 1.133671291658486 0  -0.18380885503775 -1.27444297829145 0  -0.006823496453848041 1.843496383039817 0  0.9161586655757106 -0.9570990851826197 0  0.393046469588146 -1.230505289208512 0  -0.7294690501866823 -1.083772498267881 0  -0.7053037986406365 1.64739336883059 0  -0.5328592006543993 1.315159660994544 0  1.620665984049682 0.8721175549889689 0  -1.331145368045289 1.272705286472058 0  -1.157996598391111 -0.6731746228410773 0  0.4775198603162304 1.779230733250975 0  1.264881583975385 -0.4765284958767841 0  -1.470366759108909 -0.1333395447536605 0  1.455087689013411 0.108011069468541 0  -1.336510212604452 0.4812492763105857 0  -1.731023608723631 -0.743162944397298 0  0.1688117425210405 -1.875652078672596 0  -0.6570576050288384 -1.766126374213915 0  0.9677633649554498 -1.61976304068882 0  1.23077611537345 0.6500026703424873 0  -0.9933678504455816 0.9678995087595357 0  -1.889573040853551 0.07021507122428408 0  -1.378374027800724 -1.295007892008932 0  -0.04190786351947456 0.7048663963165321 0  -0.6078443142731478 0.3333206063224519 0  0.5737496649967868 -0.23741408594574 0  1.501483641277246 -1.136044067058718 0  1.854150979436235 0.3968707896496754 0  0.5648274895598495 0.4257708486505627 0  -1.223433279178107 -0.367422977075846 0  1.889771781133375 -0.2559869809938833 0  1.275376123718271 -0.1680215576818994 0  0.421241250180856 1.302788535503612 0  -0.07630152319389971 1.368650266931972 0  -1.291227582343412 0.1802706040059738 0  -1.568992734156074 1.086574803576146 0  1.268347897215721 0.3421399614442237 0  -0.580788883773926 -0.2813255146205968 0  0.02114976315468352 -0.5620495136512862 0  1.036986530473907 -0.6779674864638245 0  -0.9309112191378365 -0.8650920713937817 0  0.6207543796509813 -1.029039940918665 0  -1.128890603017817 0.6908409516669839 0  0.9372909746203789 1.656866352506642 0  1.002714397125565 0.8780875940815827 0  1.396235431488379 1.295068488228155 0  -1.171244125626308 1.517141040021824 0  -0.2935328867008439 1.895571571504416 0  0.09877625134232129 -1.175767562019669 0  -0.4311052502083981 -1.106035467024987 0  -0.7465282982977079 1.119535582515203 0  -1.840007518979418 0.3540012662575798 0  -0.02074517496021988 0.3773558684881267 0  1.695849958148497 -0.927313062736066 0  1.810120140642856 0.6702168380604988 0  -0.1516493157972123 -1.557529439019338 0  -1.204014062803326 -1.509273434713181 0  -0.7889146689988453 -1.340332969733884 0  -0.004827633220707783 -0.2042885587575003 0  -0.232763050153447 -0.0562416238610019 0  -0.2350091456520758 0.2113285700633476 0  -1.420678722980643 -0.7490251616229497 0  -0.7378656927228541 0.1081417271114437 0  0.7400387521897738 0.1750380196818609 0  0.211014192726415 0.7636414139291565 0  -1.762986755304381 -0.4929131986914744 0  -0.3693020585954819 0.7119133258162488 0  -0.07142987497814129 -1.797189983329319 0  0.271223844960516 -0.5855862168493717 0  -1.732054354047967 0.8704915343933063 0  0.2479088368595059 0.2222919568420711 0  0.2412325333176884 -0.05649332691971831 0  0.1660135240833426 1.284759904380801 0  0.4511345139786769 0.6526729898846027 0  -1.22601635945954 -0.09210265080326979 0  0.2307804728363665 1.776938642766718 0  0.543855903678139 -1.438271925076446 0  -0.9319571271780358 1.559
[...]
<PointData  Vectors="f_2401-0"> 
<DataArray  type="Float64"  Name="f_2401-0"  NumberOfComponents="3" format="ascii">-2.2089612574383636e-02 -7.2932593098712944e-02 0.0000000000000000e+00  -5.6380472907976154e-03 -8.7324459740530200e-02 0.0000000000000000e+00  1.4060151679039375e-02 -9.8079614503137319e-02 0.0000000000000000e+00  3.5366483966146139e-02 -1.0514132906052853e-01 0.0000000000000000e+00  6.0112641721508153e-02 -1.1261891779897318e-01 0.0000000000000000e+00  8.8057851324933809e-02 -1.1449960343931277e-01 0.0000000000000000e+00  1.1252072318070082e-01 -1.0878325369795548e-01 0.0000000000000000e+00  1.3190910036151274e-01 -9.6720330834060037e-02 0.0000000000000000e+00  1.4222042420674222e-01 -7.7093460392240840e-02 0.0000000000000000e+00  1.3353560331780867e-01 -5.3390282610941600e-02 0.0000000000000000e+00  1.1513630258018340e-01 -2.9815090441724274e-02 0.0000000000000000e+00  9.2317171351747468e-02 -7.3083913030284504e-03 0.0000000000000000e+00  7.0442002077528654e-02 9.7711752057780838e-03 0.0000000000000000e+00  4.6952204123132661e-02 2.6999108933905631e-02 0.0000000000000000e+00  2.3534045391781808e-02 3.9844820380614668e-02 0.0000000000000000e+00  -2.5118396354404989e-03 4.9362542940235205e-02 0.0000000000000000e+00  -2.9437747193011957e-02 3.3798555746793579e-02 0.0000000000000000e+00  -5.5177435696210093e-02 2.0816678748868306e-02 0.0000000000000000e+00  -8.0882003633416508e-02 2.8988077985839639e-03 0.0000000000000000e+00  -1.0519947049203940e-01 -1.7063338322715466e-02 0.0000000000000000e+00  -1.2102980589292128e-01 -3.7336989578607496e-02 0.0000000000000000e+00  -1.3379654649472639e-01 -6.0500398713268150e-02 0.0000000000000000e+00  -1.3920736967704317e-01 -8.7781303540608646e-02 0.0000000000000000e+00  -1.2613637553039048e-01 -1.0669352884937996e-01 0.0000000000000000e+00  -1.0231677769288609e-01 -1.1540335919549473e-01 0.0000000000000000e+00  -7.6389718919144839e-02 -1.1678484262723794e-01 0.0000000000000000e+00  -4.8525221993510420e-02 -1.1093810637012454e-01 0.0000000000000000e+00  -2.3901195799219621e-02 -1.0179619465433448e-01 0.0000000000000000e+00  -5.2488869364147013e-03 -9.4228739826861529e-02 0.0000000000000000e+00  1.2491312465125318e-02 -8.1932195883769099e-02 0.0000000000000000e+00  2.9838548592542240e-02 -7.0942264432277455e-02 0.0000000000000000e+00  4.1218428999080674e-02 -5.8589607434923405e-02 0.0000000000000000e+00  5.1640375743958473e-02 -4.2072691018284210e-02 0.0000000000000000e+00  6.1671366159036414e-02 -2.8721179721979236e-02 0.0000000000000000e+00  6.7912877615965248e-02 -1.3108111426010467e-02 0.0000000000000000e+00  6.8040292871203154e-02 6.0615463345705799e-04 0.0000000000000000e+00  6.4294625216705092e-02 1.6640139834515209e-02 0.0000000000000000e+00  6.2442307654736087e-02 3.0962873534192591e-02 0.0000000000000000e+00  5.7027390389821395e-02 4.2273951242369510e-02 0.0000000000000000e+00  5.2894010961719772e-02 5.1597006317025115e-02 0.0000000000000000e+00  4.3742595715718716e-02 6.1888396983846183e-02 0.0000000000000000e+00  2.9019015006731805e-02 6.8405981507449920e-02 0.0000000000000000e+00  1.9794354178848790e-02 7.2507242880846409e-02 0.0000000000000000e+00  9.3756173234356456e-03 7.2226293484977916e-02 0.0000000000000000e+00  -4.0028564763453173e-03 7.6922593563268249e-02 0.0000000000000000e+00  -1.6297219464476011e-02 7.5070156760484064e-02 0.0000000000000000e+00  -2.6349204395061807e-02 7.2513759617881007e-02 0.0000000000000000e+00  -3.5414801617609966e-02 6.7564998450677455e-02 0.0000000000000000e+00  -4.5203932488045148e-02 5.9336745999214777e-02 0.0000000000000000e+00  -5.1888058621798155e-02 4.9867943607335798e-02 0.0000000000000000e+00  -5.9989111062380022e-02 3.7010797243930922e-02 0.0000000000000000e+00  -6.5621753075400815e-02 2.3376402079405778e-02 0.0000000000000000e+00  -6.6125530358233875e-02 1.0685788927523553e-02 0.0000000000000000e+00  -6.3698538352235129e-02 -2.6024259774098434e-03 0.0000000000000000e+00  -6.1328893515954060e-02 -1.8895325381181147e-02 0.0000000000000000e+00  -5.7302836594084562e-02 -2.9950001165542309e-02 0.0000000000000000e+00  -4.7851747105620360e-02 -4.4051023075826742e-02 0.0000000000000000e+00  -3.6233394895936188e-02 -6.0968500429234955e-02 0.0000000000000000e+00  1.2945609513322640e-01 1.4196411236889702e-04 0.0000000000000000e+00  1.2898869017248596e-01 1.0604590949272618e-02 0.0000000000000000e+00  1.2716746631856451e-01 2.4077252510201590e-02 0.0000000000000000e+00  1.2483765197634385e-01 3.4300460019854657e-02 0.0000000000000000e+00  1.2116948040288517e-01 4.5615873038141817e-02 0.0000000000000000e+00  1.1704668426735355e-01 5.5255492554433440e-02 0.0000000000000000e+00  1.1101706480777997e-01 6.6304319622984664e-02 0.0000000000000000e+00  1.0461164448866024e-01 7.6015275695248366e-02 0.0000000000000000e+00  9.6820813835868560e-02 8.5908380333089507e-02 0.0000000000000000e+00  8.9572938673922978e-02 9.3493299811041111e-02 0.0000000000000000e+00  8.0740797263243957e-02 1.0123958094993309e-01 0.0000000000000000e+00  7.1225623130106996e-02 1.0812513531964174e-01 0.0000000000000000e+00  6.2213154776893827e-02 1.1351701310092102e-01 0.0000000000000000e+00  4.9796842682115684e-02 1.1947668034902818e-01 0.0000000000000000e+00  4.1123077924104884e-02 1.2273425900429821e-01 0.0000000000000000e+00  2.8806942452717144e-02 1.2611287070799299e-01 0.0000000000000000e+00  1.7359679938660187e-02 1.2815338850160032e-01 0.0000000000000000e+00  5.7832539855326723e-03 1.2920090909643928e-01 0.0000000000000000e+00  -6.9688868822434559e-03 1.2925882189691085e-01 0.0000000000000000e+00  -1.6219994943057005e-02 1.2842429231915101e-01 0.0000000000000000e+00  -2.8769083253473385e-02 1.2611728217961479e-01 0.0000000000000000e+00  -4.1119048012123856e-02 1.2273788184411522e-01 0.0000000000000000e+00  -4.9790323800855074e-02 1.1948238305514600e-01 0.0000000000000000e+00  -6.1281590843471817e-02 1.1388078678009685e-01 0.0000000000000000e+00  -7.2147699132653773e-02 1.0747413705959141e-01 0.0000000000000000e+00  -8.0634705376379387e-02 1.0130968524919880e-01 0.0000000000000000e+00  -8.9497470872358598e-02 9.3574080589304859e-02 0.0000000000000000e+00  -9.7516082594498704e-02 8.5184999699142394e-02 0.0000000000000000e+00  -1.0475003947828228e-01 7.6100117749447610e-02 0.0000000000000000e+00  -1.1115105889932077e-01 6.6419703374437075e-02 0.0000000000000000e+00  -1.1670330618574402e-01 5.6051879551332527e-02 0.0000000000000000e+00  -1.2082844320428313e-01 4.6396727764740152e-02 0.0000000000000000e+00  -1.2506452323852654e-01 3.3296418797753538e-02 0.0000000000000000e+00  -1.2712327417354330e-01 2.4259330597921590e-02 0.0000000000000000e+00  -1.2878047781882554e-01 1.1611567103928458e-02 0.0000000000000000e+00  -1.2934043512220153e-01 -3.0248116376429939e-05 0.0000000000000000e+00  -1.2878185604767420e-01 -1.2776421688498405e-02 0.0000000000000000e+00  -1.2754084073578656e-01 -2.1951653499060052e-02 0.0000000000000000e+00  -1.2463057877224909e-01 -3.4400575863969614e-02 0.0000000000000000e+00  -1.2074546846789212e-01 -4.6575703955038031e-02 0.0000000000000000e+00  -1.1710120839904989e-01 -5.5099067098554409e-02 0.0000000000000000e+00  -1.1059137606749751e-01 -6.7229461988472100e-02 0.0000000000000000e+00  -1.0482795803457855e-01 -7.5981381334267822e-02 0.0000000000000000e+00  -9.7405359891736931e-02 -8.5285429220002665e-02 0.0000000000000000e+00  -9.0145836360698048e-02 -9.2859794142338567e-02 0.0000000000000000e+00  -7.9794490454652978e-02 -1.0190535616304297e-01 0.0000000000000000e+00  -7.2281775459172387e-02 -1.0737308644822909e-01 0.0000000000000000e+00  -6.1273279588111379e-02 -1.1387052626827493e-01 0.0000000000000000e+00  -4.9788856921330768e-02 -1.1947505840618425e-01 0.0000000000000000e+00  -4.1108543261786479e-02 -1.2273586653078603e-01 0.0000000000000000e+00  -2.7860924147152286e-02 -1.2641395515015053e-01 0.0000000000000000e+00  -1.7386094019120599e-02 -1.2830202764927434e-01 0.0000000000000000e+00  -6.7649290724229594e-03 -1.2927232161354774e-01 0.0000000000000000e+00  6.9716835132876956e-03 -1.2925150381636774e-01 0.0000000000000000e+00  1.6225883127155498e-02 -1.2841930692412762e-01 0.0000000000000000e+00  2.9765968359235444e-02 -1.2597690651984397e-01 0.0000000000000000e+00  3.9882665613444161e-02 -1.2318986946335898e-01 0.0000000000000000e+00  5.1019051341373314e-02 -1.1900328940510382e-01 0.0000000000000000e+00  6.0472400879390875e-02 -1.1445447559414333e-01 0.0000000000000000e+00  7.2115069098694015e-02 -1.0750163594041046e-01 0.0000000000000000e+00  8.0725190581331596e-02 -1.0121648747147594e-01 0.0000000000000000e+00  8.8750850413659627e-02 -9.4220278598296819e-02 0.0000000000000000e+00  9.8124403405075625e-02 -8.4404548845443822e-02 0.0000000000000000e+00  1.0465875020478223e-01 -7.6208324648190509e-02 0.0000000000000000e+00  1.1120809851514252e-01 -6.6283785025744654e-02 0.0000000000000000e+00  1.1617847671353808e-01 -5.7041178894509346e-02 0.0000000000000000e+00  1.2105063244366385e-01 -4.5447604552363637e-02 0.0000000000000000e+00  1.2464213977422881e-01 -3.4382896714977927e-02 0.0000000000000000e+00  1.2751628369901186e-01 -2.2121577051590510e-02 0.0000000000000000e+00  1.2892964682369340e-01 -1.1752603587782014e-02 0.0000000000000000e+00  -7.7291006255932786e-04 1.5698134947919828e-01 0.0000000000000000e+00  5.1634520656396992e-03 -8.3722689973117700e-02 0.0000000000000000e+00  -2.6302581538493776e-02 -8.1095844407021792e-02 0.0000000000000000e+00  3.8376836815764113e-02 -7.5515718588398284e-02 0.0000000000000000e+00  -4.7181855591356590e-02 -5.6310403974331368e-02 0.0000000000000000e+00  4.5274618372930765e-02 -4.9744716776291824e-02 0.0000000000000000e+00  -4.8037637719829614e-02 -5.5357875983447852e-02 0.0000000000000000e+00  5.8308083697859427e-02 -5.7212942148129400e-02 0.0000000000000000e+00  -8.2521461372647723e-02 -4.9116261522661193e-02 0.0000000000000000e+00  9.4981733864131349e-02 -3.5174765515302901e-02 0.0000000000000000e+00  -1.0702563492681259e-01 -2.2461893813863877e-03 0.0000000000000000e+00  1.0544229581600045e-01 1.4475362650287572e-02 0.0000000000000000e+00  7.0095478448584297e-02 7.6045213420531693e-02 0.0000000000000000e+00  -9.0924945279822825e-02 5.3902900667004414e-02 0.0000000000000000e+00  -3.0748983853191327e-02 9.7028943135703427e-02 0.0000000000000000e+00  -3.8266948052625219e-02 7.3072747336239197e-02 0.0000000000000000e+00  4.2276201404478977e-02 7.2660677912944172e-02 0.0000000000000000e+00  2.2716439143999487e-02 9.1736969092866730e-02 0.0000000000000000e+00  -3.5396562062403256e-02 1.0238076874153937e-01 0.0000000000000000e+00  -1.1831295719058360e-02 1.3896380416688439e-01 0.0000000000000000e+00  2.9477786133986696e-02 1.0515716947265850e-01 0.0000000000000000e+00  1.4491396855444249e-02 1.3727602774344932e-01 0.0000000000000000e+00  7.7456850293021184e-02 -7.0519895304737387e-02 0.0000000000000000e+00  3.6587914718744702e-02 -1.0384822955147027e-01 0.0000000000000000e+00  -2.3090255114842837e-02 -1.1044477303795854e-01 0.0000000000000000e+00  -6.5641890605672465e-02 -9.2194181925313839e-02 0.0000000000000000e+00  -8.7522883952040817e-02 -5.6575865523563862e-02 0.0000000000000000e+00  1.0687263244587815e-01 -3.3621942263623021e-02 0.0000000000000000e+00  8.5326578647091408e-02 -4.8825484951918990e-02 0.0000000000000000e+00  -9.9724062825198884e-02 -4.3000760532727555e-02 0.0000000000000000e+00  -1.1631895488102068e-01 -9.8750807739610581e-03 0.0000000000000000e+00  9.8093114716740190e-02 6.3727498885634420e-02 0.0000000000000000e+00  8.3086125499483660e-02 3.3425232869768950e-02 0.0000000000000000e+00  5.6111871793675045e-03 -4.9075855195959271e-02 0.0000000000000000e+00  -8.2896016193530390e-05 1.1793858263468407e-01 0.0000000000000000e+00  -4.9890610166713045e-03 -6.1176655281712164e-02 0.0000000000000000e+00  -6.6624852577941594e-03 -5.7444822001031404e-02 0.0000000000000000e+00  4.6191653190849127e-03 -6.4850370635550700e-02 0.0000000000000000e+00  -6.6139053058381830e-02 9.4424748210212003e-02 0.0000000000000000e+00  -5.7256041266815307e-02 6.4981547167234602e-02 0.0000000000000000e+00  1.1957991834555927e-01 1.5055336101145214e-02 0.0000000000000000e+00  -1.0962139131828467e-01 5.1875542844983684e-02 0.0000000000000000e+00  1.8240044923170957e-02 -5.9043680493853209e-02 0.0000000000000000e+00  4.5019967132541236e-02 1.0934046107601612e-01 0.0000000000000000e+00  -1.0341546899741580e-02 -6.7200851429986913e-02 0.0000000000000000e+00  -4.1641136851481256e-02 -6.6498570678429042e-02 0.0000000000000000e+00  5.6327084739449869e-02 -6.3913767755432005e-02 0.0000000000000000e+00  -7.7328936925479513e-02 -4.7352679806534445e-02 0.0000000000000000e+00  -9.8515665627354213e-02 -5.0790214271234951e-02 0.0000000000000000e+00  1.1384179332414555e-02 -1.1809152752250708e-01 0.0000000000000000e+00  -4.7484001496123911e-02 -1.0920244718582325e-01 0.0000000000000000e+00  6.8959314558888554e-02 -9.7190329812756215e-02 0.0000000000000000e+00  8.4341750147604741e-02 -3.1341246149386152e-02 0.0000000000000000e+00  -8.8035424900503714e-02 1.0336657287049760e-02 0.0000000000000000e+00  -1.1463601782826541e-01 -2.8011110696413436e-02 0.0000000000000000e+00  -9.0788592523458611e-02 -7.1942801765356959e-02 0.0000000000000000e+00  -5.9130178238165805e-03 1.0055351023520440e-01 0.0000000000000000e+00  -5.4832192162410191e-02 4.2331558428626938e-02 0.0000000000000000e+00  -1.5819897857686286e-03 2.6856529154836498e-02 0.0000000000000000e+00  9.4353277527529741e-02 -6.2769440469598703e-02 0.0000000000000000e+00  1.2049314620785054e-01 -1.1241058405455350e-02 0.0000000000000000e+00  5.5915921338712600e-02 5.3313860973730462e-02 0.0000000000000000e+00  2.0108237893596580e-02 -7.9991905110758016e-02 0.0000000000000000e+00  1.0988585109997306e-01 -3.7575536978440044e-02 0.0000000000000000e+00  2.0741634102313371e-03 -8.3718257901879117e-02 0.0000000000000000e+00  4.5783008738628499e-02 6.6428850580032450e-02 0.0000000000000000e+00  -7.3506843965339998e-03 8.2338429165176877e-02 0.0000000000000000e+00  -4.1009278586844118e-02 -7.2411758436993851e-02 0.0000000000000000e+00  -1.1881790019898042e-01 3.8252151643407180e-02 0.0000000000000000e+00  5.6920555607515695e-02 -6.1242458770552607e-02 0.0000000000000000e+00  1.2381907985019211e-02 1.7828755444164693e-02 0.0000000000000000e+00  -5.7495111064577694e-03 1.3461911778836408e-01 0.0000000000000000e+00  -4.5948915095822031e-02 -6.8228332195074889e-02 0.0000000000000000e+00  2.6339334977504066e-02 -6.0114708363887069e-02 0.0000000000000000e+00  -3.1377958491160277e-02 -6.1303866028857276e-02 0.0000000000000000e+00  -8.2722737382462747e-02 -2.4451649542449532e-02 0.0000000000000000e+00  8.0370441054302910e-02 9.3393266285264634e-02 0.0000000000000000e+00  8.3560078930049006e-02 -1.9456665481744843e-03 0.0000000000000000e+00  1.1052792406758423e-01 5.6630836776912809e-02 0.0000000000000000e+00  -9.5986687449660685e-02 7.9249016995147761e-02 0.0000000000000000e+00  -2.5689931087925499e-02 1.2008275515359644e-01 0.0000000000000000e+00  -8.2861763018398839e-03 -3.1142128557282354e-02 0.0000000000000000e+00  2.9350070976044695e-02 -4.9516309707025995e-02 0.0000000000000000e+00  -7.5284369350861843e-02 3.7561348463146127e-02 0.0000000000000000e+00  -1.1813549338672449e-01 -1.6683446256800426e-02 0.0000000000000000e+00  -3.1609508182546867e-03 1.3094031024692201e-01 0.0000000000000000e+00  1.0269796252428516e-01 -5.5115681421757344e-02 0.0000000000000000e+00  1.2400855367709364e-01 9.0770433251151188e-03 0.0000000000000000e+00  -7.5808422760975692e-03 -8.5140557262267005e-02 0.0000000000000000e+00  -8.3931217918788797e-02 -8.7507329258914149e-02 0.0000000000000000e+00  -3.8920854838922714e-02 -7.4985997578365729e-02 0.0000000000000000e+00  -1.4997800661264099e-03 1.6990871352958453e-01 0.0000000000000000e+00  -1.9601686243984489e-02 1.4486535121927291e-01 0.0000000000000000e+00  -2.7864718710953421e-02 1.2909364432769482e-01 0.0000000000000000e+00  -4.8737816127197985e-02 -5.0633800522487220e-02 0.0000000000000000e+00  -4.1048142900332318e-02 -7.2306466895709744e-03 0.0000000000000000e+00  4.6623841566538059e-02 -2.8828094299291097e-03 0.0000000000000000e+00  2.6253661427062775e-02 8.8947327849637464e-02 0.0000000000000000e+00  -9.4552753131131928e-02 -4.7419115514465045e-02 0.0000000000000000e+00  -4.0708530700043467e-02 7.9586186654579325e-02 0.0000000000000000e+00  -5.5796028706199628e-03 -1.1113479017597455e-01 0.0000000000000000e+00  -5.8821404954346936e-02 8.9691218272288098e-02 0.0000000000000000e+00  -1.2353076112610169e-01 2.3282085765864571e-02 0.0000000000000000e+00  2.8519749253625718e-02 1.2621836714761567e-01 0.0000000000000000e+00  1.8406067816239310e-02 1.4371002406741501e-01 0.0000000000000000e+00  1.9419886993027279e-02 7.5046780227335019e-02 0.0000000000000000e+00  4.8575567315361244e-02 6.9726048588295800e-02 0.0000000000000000e+00  -1.9166654636822728e-03 -8.7727348756350132e-02 0.0000000000000000e+00  2.3288236377124044e-02 1.1183279151628507e-01 0.0000000000000000e+00  2.4989067656699077e-02 -8.0594575382986158e-02 0.0000000000000000e+00  -8.3694982573830332e-02 8.3230814427888808e-02 0.0000000000000000e+00  -4.7069903655037285e-02 1.1527653193576673e-01 0.0000000000000000e+00  -4.9552442249252010e-03 9.9521429257687338e-02 0.0000000000000000e+00  4.6772026361802034e-02 8.7853195222719740e-02 0.0000000000000000e+00  1.1670599455446913e-01 3.3411326566867364e-02 0.0000000000000000e+00  5.8597907596025296e-02 8.3316341103122624e-02 0.0000000000000000e+00  9.6121959013162145e-02 -7.8324474424527446e-02 0.0000000000000000e+00  6.4465246127093978e-02 1.0059979601328363e-01 0.0000000000000000e+00  5.5125189909699501e-02 -1.1055403488546392e-01 0.0000000000000000e+00  9.5571181310416572e-02 -3.9184564506523474e-02 0.0000000000000000e+00  -8.2554944562507157e-02 -4.9791378366977723e-02 0.0000000000000000e+00  8.3985698845660123e-02 -9.0172468443460121e-02 0.0000000000000000e+00  2.7414089837854375e-02 -8.0613692180681970e-02 0.0000000000000000e+00  1.1359668882724316e-01 -4.4384301165783020e-02 0.0000000000000000e+00  -7.3743287353065581e-02 3.9179238397205621e-02 0.0000000000000000e+00  -3.1980122495895956e-02 7.1638863236959852e-02 0.0000000000000000e+00  2.9092851753086318e-02 -1.2033424960749285e-01 0.0000000000000000e+00  6.5492917010159496e-02 5.7173944187968985e-02 0.0000000000000000e+00  6.3463953792755823e-02 4.9485725084979094e-02 0.0000000000000000e+00  -1.0110379584794223e-01 3.2461132475954002e-02 0.0000000000000000e+00  9.0538460344247590e-02 8.9684571506698479e-02 0.0000000000000000e+00  -6.8178791862975832e-02 1.0717670297713584e-01 0.0000000000000000e+00  -1.4948559271801587e-02 -1.2425896132736973e-01 0.0000000000000000e+00  1.0539996385055335e-01 -6.5176223625080859e-03 0.0000000000000000e+00  -6.2417759167524504e-02 -7.2043598193816574e-02 0.0000000000000000e+00  4.5764840554439336e-02 -5.5704012836323542e-02 0.0000000000000000e+00  4.0024544462393959e-02 -6.5017954651578141e-02 0.0000000000000000e+00  1.4962656447188225e-02 1.2570403631597324e-01 0.0000000000000000e+00  -5.6647882487291364e-02 5.1836614438239420e-02 0.0000000000000000e+00  5.0207586789371442e-02 -9.3223570750144702e-02 0.0000000000000000e+00  8.6091013814342573e-02 -4.7743259990292504e-02 0.0000000000000000e+00  4.2293214948499136e-02 -5.5988502014366677e-02 0.0000000000000000e+00  3.6718021497563091e-02 -5.1370145682753839e-02 0.0000000000000000e+00  1.6335960166853982e-02 -3.1178155098039576e-02 0.0000000000000000e+00  9.5668428014796664e-02 2.2599599142164261e-02 0.0000000000000000e+00  -5.1949128128575987e-02 -5.1182951855960709e-02 0.0000000000000000e+00  -1.2666333450462333e-01 1.3760699118258616e-02 0.0000000000000000e+00  6.3808176604923939e-02 -7.9480081222717366e-02 0.0000000000000000e+00  1.9277324363938846e-02 -1.0216983014993600e-01 0.0000000000000000e+00  -6.1113678598431240e-02 -1.1032488489673657e-01 0.0000000000000000e+00  -7.5400840749718590e-02 5.9315057300230893e-02 0.0000000000000000e+00  1.0220851011234646e-02 -7.5749566789375944e-02 0.00000000000000