<?xml version="1.0"?>
<VTKFile type="UnstructuredGrid"  version="0.1"  >
<UnstructuredGrid>
<Piece  NumberOfPoints="1235" NumberOfCells="2353">
<Points>
<DataArray  type="Float64"  NumberOfComponents="3"  format="ascii">-1.008307799001863 0.218775422891077 0  -1.003733329098381 0.1080470713499281 0  -0.9863632819699243 -0.001931253498145681 0  -0.9564350774537972 -0.109451448544424 0  -0.9145594631785167 -0.2124045249009129 0  -0.8611565044679065 -0.3107337141721699 0  -0.7970400449388692 -0.4019639543044319 0  -0.7232262524634262 -0.4856915809060472 0  -0.6424929877820206 -0.5591048466998969 0  -0.557928188204748 -0.6211066295254607 0  -0.4694091632973939 -0.6728570571377227 0  -0.3770276541735962 -0.715069614536929 0  -0.2820639634281266 -0.7476115133876442 0  -0.1852566850356611 -0.770571271987551 0  -0.08869559527987042 -0.7836384340089819 0  0.006066396232056384 -0.7873836924048959 0  0.1002558209317324 -0.7820383956703802 0  0.1970333074266447 -0.7672621392409676 0  0.2937417314307442 -0.7426481896391021 0  0.3878852160081358 -0.7084847387422053 0  0.4786716540625512 -0.6649789336538849 0  0.5668377326072745 -0.6113259324390264 0  0.6504049321709841 -0.5479991516840349 0  0.7290309426996568 -0.4741666888518166 0  0.8012087904653217 -0.3900601245757566 0  0.8641550613375794 -0.2974800245831714 0  0.9160741984742157 -0.198897548730996 0  0.9563931599159164 -0.0951376939345655 0  0.9847016631877016 0.01227408733485652 0  1.000707182013135 0.1227068378728316 0  1.004034680545251 0.233455691226889 0  0.9946697411064246 0.3439291287442642 0  0.9726849467520975 0.45281042035923 0  0.9387452112296713 0.5578307774844976 0  0.8934160251300584 0.6581600085335091 0  0.8367908290686938 0.75329957909996 0  0.7703634063431896 0.8411506465690338 0  0.6943776514029669 0.9211059945873449 0  0.6097790213170019 0.9923497676923946 0  0.5181163435311099 1.05361193127316 0  0.4199810424237239 1.104724107917885 0  0.3168922836998346 1.144773613964238 0  0.2100978266406858 1.173628783941865 0  0.1009214354304785 1.190680712106955 0  -0.009264273565489882 1.195874037668665 0  -0.1195748069953795 1.188929465302518 0  -0.2286468110246632 1.17015829746434 0  -0.3350234787984618 1.139636747526283 0  -0.4372732213761871 1.097794261411861 0  -0.5345180260476159 1.045177845827756 0  -0.6251671620730956 0.9824569093249763 0  -0.7083484921438532 0.9102488085532023 0  -0.7831072336909363 0.8292510595580209 0  -0.8488178751504282 0.7399377846821756 0  -0.9038131858573104 0.6444976902381265 0  -0.9478287334508286 0.5431170314733985 0  -0.9802236475157926 0.4373848050579303 0  -1.000335121919798 0.3287950448046325 0  2.500427303429436 0.0001844010591282964 0  2.492324350870146 0.2012002304599645 0  2.468077920255072 0.4009143517858529 0  2.427749088794301 0.5983862973574435 0  2.371675747324617 0.7920135209998859 0  2.300427167375187 0.9798812854527397 0  2.213933515081197 1.162170019887672 0  2.113356494274636 1.336376725940895 0  1.998953760450757 1.502120150244191 0  1.871607063618433 1.658092978028192 0  1.732097123158696 1.803336323295297 0  1.581527030219649 1.936729038270522 0  1.420227150714977 2.057935171543385 0  1.25040502020744 2.165324804595808 0  1.071907601764513 2.258994567880569 0  0.886459603007819 2.338019823701482 0  0.6958712891226304 2.401647189726845 0  0.4999727680385909 2.449935888813264 0  0.3013945122227683 2.482204907589035 0  0.1008632588996928 2.498396382252621 0  -0.1008644665134023 2.498395331079122 0  -0.3013721352795538 2.482209584698239 0  -0.5001528829125642 2.44990651336916 0  -0.6956871708836327 2.401708578791575 0  -0.8864912428141731 2.338008998943599 0  -1.071905675417669 2.25899784348639 0  -1.250206505942653 2.165417986198467 0  -1.420398884717814 2.057800408443668 0  -1.581376203407222 1.936834166511106 0  -1.732097032646529 1.803298090176179 0  -1.871721215162489 1.65795295635724 0  -1.998955225572743 1.502116104039263 0  -2.113240378227566 1.336548056855927 0  -2.214000683395513 1.161995458962943 0  -2.300428159757063 0.9798795474716925 0  -2.371676321746571 0.7920120157204216 0  -2.427819933154101 0.5981817345001006 0  -2.468011829785474 0.4013097788129432 0  -2.492335511159256 0.2009860412676516 0  -2.500426206461711 0.0002146952247003856 0  -2.492297113009385 -0.2014161194331083 0  -2.468082046278603 -0.4008845293003928 0  -2.427715791106392 -0.5986027522161641 0  -2.371812688260993 -0.7916003162665566 0  -2.300256089166066 -0.9802816416397173 0  -2.214118339424572 -1.161813963631563 0  -2.113218612170448 -1.336576843129125 0  -1.999079768733871 -1.5019368358163 0  -1.871475809271181 -1.658227769703557 0  -1.732131286810158 -1.803302099035755 0  -1.581368708503252 -1.936866222648267 0  -1.420558617069939 -2.057706999140955 0  -1.25002756391064 -2.165541269206184 0  -1.072111030027819 -2.258920108041854 0  -0.8864953951001133 -2.33800706374821 0  -0.6956638948743549 -2.401713259850137 0  -0.5003307099941589 -2.449860875033413 0  -0.3013931256376028 -2.482185505781544 0  -0.1005005765823428 -2.498409506969134 0  0.1006826977674146 -2.498406940523603 0  0.3012128010474486 -2.482221002873829 0  0.5003288597563649 -2.449862379672442 0  0.695664199090965 -2.40171347265884 0  0.8864951907557247 -2.338006490461062 0  1.0719072478322 -2.258993858307461 0  1.250405065844558 -2.165323589944737 0  1.420225170796044 -2.057936017543202 0  1.581525920909298 -1.936729040078022 0  1.732096782554892 -1.80333577713016 0  1.871605160633551 -1.658093479013154 0  1.998953865589227 -1.502120514683948 0  2.113355133856701 -1.336376435416062 0  2.213932408109753 -1.162171424762038 0  2.300327516035067 -0.9800809851381853 0  2.371733222782769 -0.7918003438884094 0  2.427755183649125 -0.5983889062018405 0  2.468026814151207 -0.4010934498345458 0  2.492299141017537 -0.2011952034989794 0  -0.002573623570431913 0.2109070179799569 0  0.1118921409432955 -1.641133222522054 0  -0.7676317929437011 -1.472894818303309 0  0.9014177151163578 -1.39839946472438 0  -1.389163961702094 -0.9657627589269607 0  1.530365137218504 -0.7433650122019551 0  -1.722453783090106 -0.2182551866608559 0  1.743520705971177 -0.03080985778637188 0  -1.694757177406983 0.5387860684286392 0  1.623449172994708 0.7590112923215512 0  -1.361077253226391 1.199442117636359 0  1.216181789220308 1.359869082127493 0  -0.7966928604180469 1.655684834473748 0  0.6055968826523075 1.740347876938833 0  -0.1053073920693185 1.843927054603934 0  0.6200372434323871 -1.86161961244594 0  0.5031031554824896 0.2541915028905623 0  -0.5093819610041264 0.191952781399363 0  -0.3939537129948278 -1.892805600972673 0  0.2759605395157724 -0.197325115894472 0  -0.2386643130819739 -0.2220654009388282 0  -0.2646814248596663 0.631773789361445 0  1.45169041862598 -1.290513541616268 0  -1.313143165286656 -1.483837721667282 0  -1.85022993840734 -0.7174606029154369 0  -0.2701588533692229 -1.292569667510726 0  0.4112461148000252 -1.241532017005734 0  1.968985673903298 0.4123250538888893 0  1.034051089871155 -0.9069073264784635 0  1.949120443503825 -0.4746361503226879 0  -0.7777912613473352 -1.02376191650259 0  -2.037924525172582 0.2408581111490239 0  0.2279658598016751 0.6622350587861833 0  -1.780300391296161 1.01922491888123 0  0.2400948267415385 -2.057848166304351 0  -1.314241015313308 -0.4936968320608325 0  1.038141367853638 -1.801491121074191 0  -0.8260681595427714 -1.90438028194429 0  -1.24631204160947 1.639292018738016 0  1.800262271083871 -1.064123227002862 0  1.367455136716264 -0.3158035602452597 0  1.645393432584615 1.217115776808463 0  -0.5181496946430766 2.000799813467625 0  -1.774926787483328 -1.11319384530403 0  1.542878868933198 0.3381335281974027 0  -1.447716802369462 0.1611904998342602 0  1.047007643126046 1.773184834074038 0  0.2863430714694084 2.045282517712308 0  -1.3109667820428 0.7701206577060909 0  1.230273589559344 0.9260389477970108 0  2.117215748461747 -0.1314844312456902 0  -2.075680133923604 -0.3970799756147619 0  -1.053142906819217 -0.7680844809283884 0  -0.9343756338201709 1.259106067440768 0  0.7984306162280986 1.365239802511632 0  0.2207474630485434 1.586161424989078 0  -0.3928987924357403 1.54606962941778 0  -2.057574483023266 0.6054993036209275 0  0.6693240778911478 -0.9935100552227841 0  1.992061113202698 0.7801104126949719 0  0.06079169183486816 -1.154750581490813 0  -1.678573535042465 1.359544073688731 0  -1.039253604066286 -1.261304853663046 0  1.112115200734656 -0.5680937802494005 0  -1.030591987413512 1.906815801694245 0  1.371600216436316 1.668826391700012 0  1.343868028842064 0.03428324907135195 0  -1.380613448312181 -0.1681374610214434 0  -0.1744324857584549 -2.161259146432376 0  1.297719367869926 0.582077542854926 0  -0.1760506952604497 2.173468501430484 0  0.6199262329335522 2.077412446368687 0  1.366728543925875 -1.644088560916111 0  0.5970143193628294 -0.08241544394630274 0  0.02644578511257786 -0.4302299847746657 0  0.5958369337932726 -1.526036420971967 0  -1.168653775092771 -1.808258146752742 0  -0.5658749171195598 -0.157529861452699 0  -0.5906923931394031 0.5206575824462958 0  -2.022288511176606 -0.08088599103201023 0  -0.03253768326379727 0.8693259836803241 0  -1.384707218660068 0.4657251138343355 0  0.5510332495945468 0.607546786204618 0  2.013776203076302 -0.8037607131738334 0  -1.114828770215853 1.007455650948635 0  0.4857291013576516 1.411975164541768 0  0.962137414454062 1.09221233909516 0  -0.08184438476186265 1.499131564156267 0  -0.632323032740765 1.341536346928712 0  -0.4572329233372928 -1.568937834637806 0  0.5280881945721316 -2.150445653024523 0  -1.502708572823828 -1.248612802881268 0  -0.6063158444044123 -2.11309286182843 0  1.638694448238553 -0.463144892665297 0  -0.4502731821723985 -1.037880887999659 0  -0.01541784509766717 -1.91058786381571 0  1.743842292958615 -1.354008419372885 0  -1.738055702705783 0.2474415166952032 0  -1.603798191417398 -1.540203610313209 0  -0.1797984760571625 -1.661422166989576 0  1.919416571207094 1.080320852124268 0  -1.627961360264047 -0.5052182774766238 0  2.1780554879094 0.1783439237577 0  0.87076996400
[...]
<PointData  Vectors="f_3797-0"> 
<DataArray  type="Float64"  Name="f_3797-0"  NumberOfComponents="3" format="ascii">7.4450267013578030e-03 -8.2254898833896140e-02 0.0000000000000000e+00  2.3933408081493281e-02 -9.2493105681519694e-02 0.0000000000000000e+00  4.3224266838848620e-02 -1.0197827012651281e-01 0.0000000000000000e+00  6.5337622473884818e-02 -1.1008123247031039e-01 0.0000000000000000e+00  8.8611167619693398e-02 -1.1360392302499396e-01 0.0000000000000000e+00  1.1468800201843253e-01 -1.1599878496989854e-01 0.0000000000000000e+00  1.4043454422762561e-01 -1.1241994162056215e-01 0.0000000000000000e+00  1.6549417925158480e-01 -1.0479018567445825e-01 0.0000000000000000e+00  1.8062259769481356e-01 -8.6903022578204703e-02 0.0000000000000000e+00  1.7914653449828627e-01 -5.9242344434335251e-02 0.0000000000000000e+00  1.6782849578370809e-01 -3.0850997922100224e-02 0.0000000000000000e+00  1.4990670410770104e-01 -5.3041040707644087e-03 0.0000000000000000e+00  1.2528702390136523e-01 1.6718737425317175e-02 0.0000000000000000e+00  9.4294889134925869e-02 3.4431890763768548e-02 0.0000000000000000e+00  5.3105237649640424e-02 4.6451994772296314e-02 0.0000000000000000e+00  1.2262229889870074e-03 5.0629635990297961e-02 0.0000000000000000e+00  -5.1456556941151282e-02 4.5651556097248441e-02 0.0000000000000000e+00  -9.1373918758198738e-02 3.3283387936520505e-02 0.0000000000000000e+00  -1.2106565112559978e-01 1.5773213122168072e-02 0.0000000000000000e+00  -1.4582502870244693e-01 -6.5185397817813647e-03 0.0000000000000000e+00  -1.6534813455991551e-01 -3.3089657177514518e-02 0.0000000000000000e+00  -1.7507734193887808e-01 -6.0252924440734913e-02 0.0000000000000000e+00  -1.7622502715813371e-01 -8.6962060657162152e-02 0.0000000000000000e+00  -1.6493311122047710e-01 -1.0770243675268248e-01 0.0000000000000000e+00  -1.4177061813192599e-01 -1.1776900112706384e-01 0.0000000000000000e+00  -1.1486347452382739e-01 -1.1948113296938842e-01 0.0000000000000000e+00  -8.9455847408144176e-02 -1.1780132374429261e-01 0.0000000000000000e+00  -6.5257385794483869e-02 -1.1310938315805731e-01 0.0000000000000000e+00  -4.3665213895327203e-02 -1.0689052956605589e-01 0.0000000000000000e+00  -2.4170423339484052e-02 -9.5910096260624855e-02 0.0000000000000000e+00  -7.5713937487247029e-03 -8.5951900046280658e-02 0.0000000000000000e+00  6.5582846939279613e-03 -7.4121341080707476e-02 0.0000000000000000e+00  1.7919208127843572e-02 -6.0192033278345589e-02 0.0000000000000000e+00  2.7180030223322906e-02 -4.7920525814344569e-02 0.0000000000000000e+00  3.4761109279381433e-02 -3.6403413422676494e-02 0.0000000000000000e+00  3.8686014553045552e-02 -2.2290261109631053e-02 0.0000000000000000e+00  4.1720140009479906e-02 -1.0659675456766571e-02 0.0000000000000000e+00  4.2065395129099452e-02 1.1546748267915016e-03 0.0000000000000000e+00  3.9703565100670114e-02 1.2625149739267292e-02 0.0000000000000000e+00  3.6524339446890361e-02 2.1976461716225346e-02 0.0000000000000000e+00  3.0706164380178751e-02 3.0540433789878283e-02 0.0000000000000000e+00  2.4002027979978694e-02 3.7153191541000830e-02 0.0000000000000000e+00  1.6036619853271004e-02 4.2184246087278124e-02 0.0000000000000000e+00  7.5514365251426194e-03 4.5129488890198036e-02 0.0000000000000000e+00  -6.6649454213899971e-04 4.6184841865665065e-02 0.0000000000000000e+00  -9.3618459767442104e-03 4.5238176753571190e-02 0.0000000000000000e+00  -1.8021687396955397e-02 4.2242506697584677e-02 0.0000000000000000e+00  -2.5848544393980936e-02 3.7196066058263456e-02 0.0000000000000000e+00  -3.2437094112393400e-02 3.0392622941823939e-02 0.0000000000000000e+00  -3.8333745395508843e-02 2.1645418766516791e-02 0.0000000000000000e+00  -4.1490474122805814e-02 1.2231196016219264e-02 0.0000000000000000e+00  -4.2739274557082582e-02 1.8170141795907277e-03 0.0000000000000000e+00  -4.2064942520829894e-02 -9.3244221082030374e-03 0.0000000000000000e+00  -4.0641863318195970e-02 -2.3249985922804729e-02 0.0000000000000000e+00  -3.5183086383754045e-02 -3.4874665010392020e-02 0.0000000000000000e+00  -2.8152416216646253e-02 -4.7934080807283438e-02 0.0000000000000000e+00  -1.8801906926493403e-02 -6.0748316362059490e-02 0.0000000000000000e+00  -6.7617790620862995e-03 -7.2302424366483126e-02 0.0000000000000000e+00  1.3490208477476459e-01 9.4397457741734613e-04 0.0000000000000000e+00  1.3448921944372344e-01 1.0851880548700654e-02 0.0000000000000000e+00  1.3331092526309141e-01 2.0706940783871981e-02 0.0000000000000000e+00  1.3088242555231264e-01 3.2258618253091335e-02 0.0000000000000000e+00  1.2759838999846368e-01 4.3781851519069791e-02 0.0000000000000000e+00  1.2454249551437331e-01 5.1842845230747558e-02 0.0000000000000000e+00  1.1901580558716306e-01 6.3527027542626888e-02 0.0000000000000000e+00  1.1411817587723345e-01 7.2017598551764372e-02 0.0000000000000000e+00  1.0787224273375999e-01 8.1079237428280576e-02 0.0000000000000000e+00  1.0102639420208688e-01 8.9471032474420509e-02 0.0000000000000000e+00  9.3399121910865593e-02 9.7401827224686002e-02 0.0000000000000000e+00  8.6049881567033026e-02 1.0391104450706505e-01 0.0000000000000000e+00  7.5727303701728102e-02 1.1165314721627327e-01 0.0000000000000000e+00  6.8427552345340148e-02 1.1627244873106231e-01 0.0000000000000000e+00  5.7796301016911508e-02 1.2179160236684784e-01 0.0000000000000000e+00  4.6794991321944084e-02 1.2654110673220950e-01 0.0000000000000000e+00  3.8596558576175055e-02 1.2927624770871912e-01 0.0000000000000000e+00  2.6078926721301819e-02 1.3238218027357479e-01 0.0000000000000000e+00  1.6266913203540668e-02 1.3395942592995899e-01 0.0000000000000000e+00  6.3583683046583425e-03 1.3477581124770580e-01 0.0000000000000000e+00  -6.3635162439846420e-03 1.3477062123287870e-01 0.0000000000000000e+00  -1.6153404439530981e-02 1.3398322286043537e-01 0.0000000000000000e+00  -2.6999735095935829e-02 1.3223065190841576e-01 0.0000000000000000e+00  -3.7656498518652284e-02 1.2958831102956436e-01 0.0000000000000000e+00  -4.6955054786654030e-02 1.2648665414084265e-01 0.0000000000000000e+00  -5.7786636111332765e-02 1.2180769022396527e-01 0.0000000000000000e+00  -6.7415387521964978e-02 1.1675267234233098e-01 0.0000000000000000e+00  -7.6607646718642911e-02 1.1096697199026363e-01 0.0000000000000000e+00  -8.5279927163852534e-02 1.0445181264184754e-01 0.0000000000000000e+00  -9.3402391209091495e-02 9.7211434103591024e-02 0.0000000000000000e+00  -1.0161175019575878e-01 8.8755485088609282e-02 0.0000000000000000e+00  -1.0787883880388463e-01 8.1058984625155497e-02 0.0000000000000000e+00  -1.1352655092057350e-01 7.2893389803714015e-02 0.0000000000000000e+00  -1.1936229987527525e-01 6.2638881806980268e-02 0.0000000000000000e+00  -1.2454787714219623e-01 5.1833284031888069e-02 0.0000000000000000e+00  -1.2760129281545357e-01 4.3773588305893243e-02 0.0000000000000000e+00  -1.3123924803402162e-01 3.1213954708258013e-02 0.0000000000000000e+00  -1.3297298132302021e-01 2.2726930716255572e-02 0.0000000000000000e+00  -1.3454743035966887e-01 9.7590724333812169e-03 0.0000000000000000e+00  -1.3489616322898967e-01 1.0960982601770281e-03 0.0000000000000000e+00  -1.3435238585407636e-01 -1.1953151128804318e-02 0.0000000000000000e+00  -1.3333127995658914e-01 -2.0556784307142383e-02 0.0000000000000000e+00  -1.3070841041399001e-01 -3.3361327644703155e-02 0.0000000000000000e+00  -1.2829768727691140e-01 -4.1673177666434393e-02 0.0000000000000000e+00  -1.2367003060597474e-01 -5.3885559109785278e-02 0.0000000000000000e+00  -1.1995961598154582e-01 -6.1709349645466136e-02 0.0000000000000000e+00  -1.1341706181668804e-01 -7.3038585730611505e-02 0.0000000000000000e+00  -1.0851562118328122e-01 -8.0146016709619600e-02 0.0000000000000000e+00  -1.0035803704345030e-01 -9.0160120055739423e-02 0.0000000000000000e+00  -9.3571859004029187e-02 -9.7229380078017930e-02 0.0000000000000000e+00  -8.5241762784676198e-02 -1.0460973773335307e-01 0.0000000000000000e+00  -7.7418963161782969e-02 -1.1048917728072340e-01 0.0000000000000000e+00  -6.6501237546135600e-02 -1.1737738652600516e-01 0.0000000000000000e+00  -5.8832948863389849e-02 -1.2140697776388688e-01 0.0000000000000000e+00  -4.6975720854360456e-02 -1.2647686248841997e-01 0.0000000000000000e+00  -3.7538229586336617e-02 -1.2961184388822003e-01 0.0000000000000000e+00  -2.7907982597297272e-02 -1.3199892444848532e-01 0.0000000000000000e+00  -1.6261931776518274e-02 -1.3386457050853565e-01 0.0000000000000000e+00  -4.5035211129490285e-03 -1.3484293483554918e-01 0.0000000000000000e+00  5.4349731989790971e-03 -1.3482809713265395e-01 0.0000000000000000e+00  1.5338381099087849e-02 -1.3404319856015989e-01 0.0000000000000000e+00  2.7899014846666712e-02 -1.3200633946508950e-01 0.0000000000000000e+00  3.7540196491012187e-02 -1.2961273625662362e-01 0.0000000000000000e+00  4.6974185245200417e-02 -1.2647425949916999e-01 0.0000000000000000e+00  5.7794378670165618e-02 -1.2178800981639307e-01 0.0000000000000000e+00  6.8427356820076835e-02 -1.1626668452128008e-01 0.0000000000000000e+00  7.5717276229132685e-02 -1.1165754735729520e-01 0.0000000000000000e+00  8.6044350767457839e-02 -1.0391134544049375e-01 0.0000000000000000e+00  9.3397534364891524e-02 -9.7399315188365657e-02 0.0000000000000000e+00  1.0101689330719313e-01 -8.9473998618953735e-02 0.0000000000000000e+00  1.0787301541297752e-01 -8.1081199458766823e-02 0.0000000000000000e+00  1.1411169731747255e-01 -7.2016332800161856e-02 0.0000000000000000e+00  1.1901089705625982e-01 -6.3533514672617919e-02 0.0000000000000000e+00  1.2403651445679673e-01 -5.2865109763057569e-02 0.0000000000000000e+00  1.2789567288564710e-01 -4.2693242576247202e-02 0.0000000000000000e+00  1.3091197072526653e-01 -3.2274170507094899e-02 0.0000000000000000e+00  1.3305436686652508e-01 -2.1623277386022190e-02 0.0000000000000000e+00  1.3436650709456044e-01 -1.0827513145728001e-02 0.0000000000000000e+00  -2.2410772661955202e-03 7.7299046761616308e-02 0.0000000000000000e+00  -2.6096193556094274e-03 -4.7177042519249569e-02 0.0000000000000000e+00  -4.5997322536148735e-03 -6.4448353649859375e-02 0.0000000000000000e+00  1.0162920803658923e-02 -6.6988017079910103e-02 0.0000000000000000e+00  -2.8940976965136894e-02 -5.5396573732244922e-02 0.0000000000000000e+00  3.4129558162315138e-02 -5.1269833471874686e-02 0.0000000000000000e+00  -4.9899627637324445e-02 -5.0974412226481247e-02 0.0000000000000000e+00  5.6381251176626748e-02 -4.6809718965364282e-02 0.0000000000000000e+00  -8.0194191597186493e-02 -2.8618489076652119e-02 0.0000000000000000e+00  8.6009397046663202e-02 -1.5207389464802856e-02 0.0000000000000000e+00  -9.0536652225324865e-02 1.9053409806381989e-02 0.0000000000000000e+00  8.6546045183390236e-02 3.3292481495031667e-02 0.0000000000000000e+00  -6.3663478793469244e-02 6.8379926862485466e-02 0.0000000000000000e+00  5.1431620364181474e-02 7.8319695179450574e-02 0.0000000000000000e+00  -8.2990173153230564e-03 9.2026263040834472e-02 0.0000000000000000e+00  2.3390763682760097e-02 -9.5457045344345501e-02 0.0000000000000000e+00  1.4308638971270785e-02 2.3135551463373340e-02 0.0000000000000000e+00  -1.1581932453916324e-02 2.0455113222521994e-02 0.0000000000000000e+00  -1.3631145357642174e-02 -9.2094221732885520e-02 0.0000000000000000e+00  -5.1744471279494518e-02 7.4741632798377852e-02 0.0000000000000000e+00  4.8893096256839096e-02 7.9545450016897210e-02 0.0000000000000000e+00  -1.9306708622504758e-02 5.6559253908706336e-02 0.0000000000000000e+00  6.5958533845888456e-02 -6.9925969813469005e-02 0.0000000000000000e+00  -6.1910070068337292e-02 -7.9986175324071887e-02 0.0000000000000000e+00  -8.3217976530158722e-02 -5.0896622366444863e-02 0.0000000000000000e+00  3.6522078228798091e-02 -1.1653967951121710e-02 0.0000000000000000e+00  -4.8199826055552786e-02 -2.6462935915420729e-02 0.0000000000000000e+00  1.0547204076917892e-01 -1.3917103377031665e-02 0.0000000000000000e+00  -3.2098164807673572e-02 -5.8610684896358428e-02 0.0000000000000000e+00  9.0842839128004393e-02 -4.2570486836487093e-02 0.0000000000000000e+00  5.6336867589735808e-02 -5.9555869974750528e-02 0.0000000000000000e+00  -1.0830025970423869e-01 -1.9107682405066016e-02 0.0000000000000000e+00  1.5070771270320801e-02 5.8155686587931729e-02 0.0000000000000000e+00  -1.1150355931737332e-01 2.1591660530126851e-02 0.0000000000000000e+00  9.9993270171969267e-03 -1.0929285125478087e-01 0.0000000000000000e+00  2.9736697873822451e-02 -6.2726535451809451e-02 0.0000000000000000e+00  5.2248193218970097e-02 -9.9988556065544215e-02 0.0000000000000000e+00  -4.0718377569280179e-02 -1.0412706563683771e-01 0.0000000000000000e+00  -9.0491816441130205e-02 7.1007993534566161e-02 0.0000000000000000e+00  9.3141280843371338e-02 -6.1014185082366466e-02 0.0000000000000000e+00  -2.3137278070353727e-02 -6.7293155997331808e-02 0.0000000000000000e+00  1.0760842447010538e-01 3.4948642504716562e-02 0.0000000000000000e+00  -4.0418962566018034e-02 1.0717447370318911e-01 0.0000000000000000e+00  -9.1451992822285014e-02 -6.4062647939919629e-02 0.0000000000000000e+00  4.6334467170244933e-02 -5.1795345439191329e-02 0.0000000000000000e+00  -1.9183745065319939e-02 -6.6895733486111122e-02 0.0000000000000000e+00  7.9580888929539476e-02 8.2864464439222407e-02 0.0000000000000000e+00  2.3692690625525158e-02 1.1186566200735563e-01 0.0000000000000000e+00  -6.0610625957342595e-02 -3.2607999446167088e-02 0.0000000000000000e+00  6.5335213864076133e-02 -1.9466640773904528e-02 0.0000000000000000e+00  1.1138900055525938e-01 -2.7568943656544328e-02 0.0000000000000000e+00  -1.0670992025429334e-01 -3.8791445710026060e-02 0.0000000000000000e+00  5.5391936210434610e-02 -5.9611339910700327e-02 0.0000000000000000e+00  -6.5760445624843886e-02 1.9274950726589420e-02 0.0000000000000000e+00  6.1682672748420708e-02 3.2143422301566443e-02 0.0000000000000000e+00  2.0007598937382236e-02 6.5767066848979192e-02 0.0000000000000000e+00  -3.2188550429354437e-02 5.9882125579627341e-02 0.0000000000000000e+00  -1.1994302664850115e-01 5.3356519547822839e-03 0.0000000000000000e+00  -7.5450272891755363e-02 -6.3106408683421808e-02 0.0000000000000000e+00  1.1890463405430576e-01 1.5128144916829926e-02 0.0000000000000000e+00  -1.4644722394030672e-02 2.1225462411648081e-02 0.0000000000000000e+00  -1.1081828546607114e-01 5.3428351664978051e-02 0.0000000000000000e+00  -1.1338326156823326e-02 -6.2646141220785545e-02 0.0000000000000000e+00  -6.9904414068115608e-02 -6.9814435058098381e-02 0.0000000000000000e+00  -7.4631375017760182e-02 9.8243147225816591e-02 0.0000000000000000e+00  9.6143159015418367e-02 7.6763656776386621e-02 0.0000000000000000e+00  -9.9046777852386178e-03 -7.7415597069886252e-02 0.0000000000000000e+00  1.5718030564479502e-02 -7.2815787881934227e-02 0.0000000000000000e+00  -9.1500605105637196e-03 -1.1939149493388009e-01 0.0000000000000000e+00  4.1195669950035804e-02 -5.1814095666010543e-02 0.0000000000000000e+00  -1.2806301865337466e-02 1.2294432069460884e-01 0.0000000000000000e+00  4.7252404592212249e-02 1.1376939264405771e-01 0.0000000000000000e+00  7.4417806789760510e-02 -9.2094027562761568e-02 0.0000000000000000e+00  -3.1230555779306772e-02 -1.9076419848044594e-02 0.0000000000000000e+00  -1.6245446806093845e-02 9.5053003946643330e-02 0.0000000000000000e+00  -3.6763622982087028e-03 -5.9386055956345253e-02 0.0000000000000000e+00  -6.3463132836022645e-02 -1.0135822382096139e-01 0.0000000000000000e+00  4.3414656216846287e-02 -1.5111756143975951e-02 0.0000000000000000e+00  -3.0502389705977257e-02 1.2021092941766839e-02 0.0000000000000000e+00  -9.9889965963603750e-02 -3.2749113242344377e-02 0.0000000000000000e+00  -3.1799632760816984e-03 5.8639998416624747e-02 0.0000000000000000e+00  -3.9164167962042286e-02 -5.6184684283302519e-02 0.0000000000000000e+00  3.0698360393200317e-02 1.8553400770729721e-02 0.0000000000000000e+00  1.0737504428074622e-01 -5.0336819241240019e-02 0.0000000000000000e+00  -6.5323374553551014e-02 -9.9022690343641660e-03 0.0000000000000000e+00  4.0074187703021347e-02 4.4168114631165351e-02 0.0000000000000000e+00  5.9450578635446755e-02 -2.4409014880301728e-03 0.0000000000000000e+00  -5.8327741087699468e-03 5.7794887779992428e-02 0.0000000000000000e+00  -4.9384045301265923e-02 3.4347478309720347e-02 0.0000000000000000e+00  5.2857504500582551e-03 -5.4201463380839823e-02 0.0000000000000000e+00  2.7266073744794266e-02 -1.2097762493965729e-01 0.0000000000000000e+00  -6.7879782409225847e-02 -6.8108792787624689e-02 0.0000000000000000e+00  -3.2204291523845865e-02 -1.1859065537235043e-01 0.0000000000000000e+00  3.7323538328802822e-02 -5.0548034640494309e-02 0.0000000000000000e+00  8.6433614256904309e-02 -3.9207129441522617e-02 0.0000000000000000e+00  -1.0400564302978546e-03 -8.8533730779457379e-02 0.0000000000000000e+00  9.7418727988020273e-02 -7.5732441484480884e-02 0.0000000000000000e+00  -6.8400800095145431e-02 -4.1339932301232223e-02 0.0000000000000000e+00  -9.0132360666657793e-02 -8.6307320313872476e-02 0.0000000000000000e+00  1.8748672605121994e-03 -5.2389173242213663e-02 0.0000000000000000e+00  1.1936562434737842e-01 3.7868984893353393e-02 0.0000000000000000e+00  -3.6346432034346891e-02 -5.2600677873352535e-02 0.0000000000000000e+00  1.2120616245525601e-01 -1.1184152820460615e-02 0.0000000000000000e+00  4.6930053720156045e-02 -1.1603317603435788e-01 0.0000000000000000e+00  2.7207627550028153e-02 -5.5899611591020644e-02 0.0000000000000000e+00  1.6689455485265212e-02 -6.2618547513963174e-02 0.0000000000000000e+00  2.2612426120092056e-03 -6.7252836175488120e-02 0.0000000000000000e+00  9.0188763747794942e-03 -7.5369574267093245e-02 0.0000000000000000e+00  -1.1018596850540520e-01 -5.7350618912537114e-02 0.0000000000000000e+00  -6.4015993342404053e-03 8.5700816911510505e-02 0.0000000000000000e+00  -3.7479867334337003e-02 -7.8536827446639396e-02 0.0000000000000000e+00  5.5272291553807522e-02 1.2299197802037953e-02 0.0000000000000000e+00  3.8332670369880119e-02 -4.8702370414723029e-02 0.0000000000000000e+00  1.0704958152515981e-01 6.7545374919701029e-02 0.0000000000000000e+00  -1.2375413538225204e-01 3.4191211890322440e-02 0.0000000000000000e+00  -1.2572610605910564e-01 -1.2851302094288610e-02 0.0000000000000000e+00  -1.1534450905070635e-01 -4.5252783362688183e-02 0.0000000000000000e+00  3.7624975805872589e-03 -7.9352805453562734e-03 0.0000000000000000e+00  -4.2639642765214279e-02 -5.2797019523573879e-02 0.0000000000000000e+00  -8.6811764661195279e-02 -1.3922247437512848e-02 0.0000000000000000e+00  3.0269287109795260e-03 -4.3145768804646392e-02 0.0000000000000000e+00  -1.2628728386188545e-02 -3.4172901990263314e-02 0.0000000000000000e+00  6.3963924330410690e-02 9.5954244122648358e-02 0.0000000000000000e+00  1.2154622730906406e-01 -3.4195123287855185e-02 0.0000000000000000e+00  9.3092035708655430e-02 8.0664536004964066e-02 0.0000000000000000e+00  -5.9171782771646128e-02 9.8665664132124520e-02 0.0000000000000000e+00  4.6511866777319014e-02 -8.2395475375859215e-02 0.0000000000000000e+00  -1.1517416363892992e-01 5.9962632197413754e-02 0.0000000000000000e+00  -9.9186486609153621e-02 8.2835964941405105e-02 0.0000000000000000e+00  -1.0745518001740799e-01 -7.5962549252314993e-02 0.0000000000000000e+00  1.0870430989801193e-02 6.4809821055533803e-02 0.0000000000000000e+00  -6.2377586048372440e-03 6.4033631712691816e-02 0.0000000000000000e+00  -2.0867061058133739e-03 7.2486223804429109e-02 0.0000000000000000e+00  2.6001064518171340e-02 -8.4125922955368734e-02 0.0000000000000000e+00  9.6943979693261267e-02 -8.1057471575163992e-02 0.0000000000000000e+00  -3.3018069071201639e-02 3.0147858561149550e-02 0.0000000000000000e+00  -8.5420878559237842e-02 -1.6450692384602273e-02 0.0000000000000000e+00  -8.0330334567541822e-02 -9.7323789674605865e-02 0.0000000000000000e+00  -1.4196438646363139e-02 6.2911561923432627e-02 0.0000000000000000e+00  5.0787559507742249e-03 6.2875738542520876e-02 0.0000000000000000e+00  -2.8738052994981680e-02 -5.2080821239713700e-02 0.0000000000000000e+00  -1.7724210124879181e-02 -2.8834220828127251e-02 0.0000000000000000e+00  -1.0836163148369808e-01 2.3726604221360617e-03 0.0000000000000000e+00  7.2492578718604442e-02 -4.8781475685102202e-0