<?xml version="1.0"?>
<VTKFile type="UnstructuredGrid"  version="0.1"  >
<UnstructuredGrid>
<Piece  NumberOfPoints="1173" NumberOfCells="2198">
<Points>
<DataArray  type="Float64"  NumberOfComponents="3"  format="ascii">-1.01105819806016 0.1667359287774297 0  -1.00770794533292 0.05762805088582508 0  -0.9920256552876273 -0.05044403859798911 0  -0.9643085136112244 -0.156099661380587 0  -0.9247931501457235 -0.2580909868374063 0  -0.8739825499237158 -0.3550645545450647 0  -0.8126199780675259 -0.4455539190727207 0  -0.7418150984461779 -0.5284854949267282 0  -0.6632587027644138 -0.6024587154932293 0  -0.5782110144656536 -0.6666700220653846 0  -0.4876644795643778 -0.7210199689852966 0  -0.3923283091002401 -0.7657776989072281 0  -0.2931063492067244 -0.8004433520220444 0  -0.191184623064081 -0.8249573796162196 0  -0.08761961157913904 -0.8389644321850666 0  0.01660398318626056 -0.8425254343955697 0  0.1208463279527245 -0.8352585199965308 0  0.2238678698614208 -0.8176512098083036 0  0.3248940738745523 -0.7895721721637882 0  0.4226854990041105 -0.7513251310571517 0  0.5164884792239393 -0.7031012598437048 0  0.6050464652291813 -0.6454457868779643 0  0.6878498017979514 -0.5781845799926871 0  0.7638497195733065 -0.5013490501137357 0  0.8316671393060954 -0.4157771187828837 0  0.8895843559787502 -0.3229535896412687 0  0.9367541885135269 -0.2243171010951227 0  0.972404434773517 -0.1213010306316846 0  0.9965184566994526 -0.0146795414147383 0  1.008293554747018 0.09405047201975016 0  1.00765347208766 0.2031789393657008 0  0.9947918978183311 0.311239700347114 0  0.9698324421240822 0.4173120864185433 0  0.9330005245084323 0.5200494323554519 0  0.8851489483720294 0.6177937473210525 0  0.8265095865034967 0.7095827687289912 0  0.75822431435334 0.7945314852746029 0  0.6809144702591052 0.8715911742518392 0  0.5959627182492904 0.9396919004933691 0  0.5041665417197043 0.9982943076453977 0  0.4062894165606186 1.046777123161962 0  0.3040624933744581 1.084480413942499 0  0.1983906280508567 1.11138653671904 0  0.09029828296407956 1.126938262966683 0  -0.0189532729686888 1.130762497753985 0  -0.1277275082670719 1.122845384782043 0  -0.2351652235006073 1.10348254162814 0  -0.3398914993793809 1.072909180562892 0  -0.4406147504827245 1.031490762679843 0  -0.5364857080890325 0.9795181536607358 0  -0.6263989280185523 0.9175199531079204 0  -0.7088085940720296 0.846441532948888 0  -0.7831329589289775 0.7667732787465109 0  -0.8483044491483838 0.6794997533162911 0  -0.903458319021286 0.5855186647099905 0  -0.9478521978036754 0.4860293624508792 0  -0.980871471988868 0.3822006428900191 0  -1.002082001593581 0.2752990519953809 0  -2.344058096662997 0.1009400774688337 0  -2.34406004779612 -0.1009410249912864 0  -2.32670549176844 -0.3020733580255116 0  -2.292123234528018 -0.500969253723726 0  -2.240574147640044 -0.6961564153570682 0  -2.17243290312765 -0.8861897349252709 0  -2.088211325398536 -1.06966371339733 0  -1.988528252510695 -1.245215793732158 0  -1.874121950081995 -1.411550077300516 0  -1.745841795813302 -1.567433334778132 0  -1.604633968535568 -1.711711792854821 0  -1.451547535624282 -1.843317438986104 0  -1.287713606778873 -1.961276221223769 0  -1.114346452763199 -2.064713471437684 0  -0.9327287593310716 -2.152864798745161 0  -0.7442042230010374 -2.225077554328795 0  -0.550171204330282 -2.280816192525296 0  -0.3520649540087851 -2.319666693936847 0  -0.1513525569281535 -2.341346384475061 0  0.05048155637993454 -2.345688380515764 0  0.2519416861684364 -2.33266561429993 0  0.4515362462783293 -2.302374126251691 0  0.6477872687640034 -2.255033304167603 0  0.8392436284669206 -2.190999880651831 0  1.024485483804631 -2.110743767446024 0  1.20214301399944 -2.014860274734716 0  1.370899416749286 -1.904059811311108 0  1.529507200748815 -1.779161709651566 0  1.676789720359475 -1.641092471906064 0  1.811657881379883 -1.490870583167304 0  1.933114183120579 -1.329612810073032 0  2.040257588867492 -1.158511229195575 0  2.132297780663367 -0.9788332075464827 0  2.208549024621885 -0.7919076070053617 0  2.268448067454268 -0.5991176519527894 0  2.31155543645086 -0.4018934292780029 0  2.337546948112224 -0.201694500114807 0  2.346232385859693 6.093980165019501e-08 0  2.337545496902129 0.2016929650167142 0  2.311555275565277 0.4018933960832792 0  2.268449786775139 0.5991177227667194 0  2.208549592620625 0.7919067929628237 0  2.132298018256829 0.9788321635942524 0  2.040259725283093 1.158511962448541 0  1.933113975638242 1.329613286733988 0  1.811659472480833 1.490871705143492 0  1.676790742091883 1.641092659223899 0  1.529506768977071 1.779162323735178 0  1.370900541982629 1.904059322168175 0  1.202142152788195 2.014858842218041 0  1.024484885251586 2.110744508526707 0  0.839244232992591 2.190999807776822 0  0.6477875402589875 2.255033487404863 0  0.4515370722019043 2.302374178550641 0  0.2519418850484111 2.332667227050888 0  0.05048113388427123 2.345690918245194 0  -0.1513529033917514 2.341346361129951 0  -0.3520647449253564 2.319666952395029 0  -0.5501710141003272 2.280816381328143 0  -0.744204329207904 2.225075926436502 0  -0.9327276136623632 2.152863809909056 0  -1.114345534820257 2.064712542806365 0  -1.287713431962382 1.961276435588074 0  -1.451547316279356 1.843317810801782 0  -1.604633317814358 1.711710552737624 0  -1.745839825740491 1.567432160162292 0  -1.874121066394559 1.41154917082455 0  -1.988528022967416 1.245216507359359 0  -2.088211902778087 1.069663411763757 0  -2.172433685168936 0.886189564356803 0  -2.24057235479358 0.6961563917442267 0  -2.292123568866644 0.5009687176759007 0  -2.326703832516848 0.3020729425994541 0  -0.0003114100934968209 0.1479987275916025 0  0.1029958464087487 -1.594336477745105 0  -0.7013702241626649 -1.445845666163212 0  0.8120025185981029 -1.385439426666626 0  -1.345521771475993 -0.926523783768412 0  1.385827342354988 -0.8689010123134202 0  -1.639476761706594 -0.2871773375885056 0  1.652023657525922 -0.2166243618370857 0  -1.640213067830755 0.4303390805928127 0  1.621750452863541 0.5009849311752056 0  1.282021106594194 1.147498923699497 0  -1.329348761729666 1.090713874884676 0  -0.7809376033119819 1.545896448348149 0  0.7271807974739055 1.57198215236456 0  0.1126117402709467 1.737743274178237 0  -0.5035239960287424 0.07914898686174915 0  0.5067419012189111 0.1486104997919298 0  -0.3008790743144272 0.5431553375729653 0  0.2469907679573336 -0.2823801957598184 0  0.2499735762521844 0.5744220236224705 0  -0.3536337171336 -1.813522823271408 0  -1.20263265527912 -1.407117727672695 0  -0.372838020901996 1.822428356576197 0  1.294949358163143 -1.34363297541598 0  0.6008534395662655 -1.795955467491465 0  -0.2440027388606067 -0.3133137990938696 0  -0.8873383353683737 -1.019811165418024 0  -1.754559004122437 -0.805868003309856 0  1.780390721875099 -0.6482011307782736 0  -0.2021381465154315 -1.271423660644165 0  0.9405361306600735 -0.9537222600121292 0  0.397230059401351 -1.227819115834437 0  -1.941906996597362 -0.001552178157722437 0  1.896550436167724 0.1543154469291837 0  -1.77547910372741 0.8128520395613579 0  1.664044903803933 0.9367781423493654 0  1.296062534457451 -0.4540882761348154 0  -1.271409958005114 -0.4931038214091943 0  -1.203546435131489 1.49811608156119 0  1.147468376108381 1.547556487416362 0  -0.0005360878327898145 -1.965242624426202 0  -0.4147966241524501 1.444494243944216 0  0.4620018783431847 1.912525426325384 0  -0.7353157849408047 -1.826669082296107 0  1.079576729386046 -1.656000866178605 0  1.424314128195066 0.1315920737185934 0  -0.5333697439923548 -1.117711516975836 0  -1.406149886566115 0.103050615529806 0  1.284005935414914 0.734860078490395 0  -1.411157133559449 0.7251212107256679 0  -1.539566322876679 -1.246505029147297 0  1.610182118039668 -1.158799210074204 0  -0.9557325846194786 1.197612955690834 0  0.8898719501821015 1.20875500370581 0  -1.933105466760535 -0.4948963326801576 0  1.96858362672922 -0.3582544029353378 0  0.3666783035025227 1.456837358256153 0  -0.7224829382458002 1.883852788946173 0  -1.666837700045644 1.135958741102454 0  -0.09010252748815452 2.009160328663793 0  -1.979153923142561 0.345627375968116 0  -1.021085417531341 -0.7153573057132466 0  -0.03810410508154846 0.7796819337676036 0  1.891485800530051 0.6962560182103006 0  0.5750162060193241 -0.1885090510090363 0  -0.6152379951337966 0.4022833061666973 0  0.5763342081503553 0.4864918456900071 0  -1.117716124873143 0.8502932845980919 0  1.51975265076096 1.362394931941356 0  0.7753630984522585 1.88337253859122 0  -0.9671748907022412 -1.614773982380233 0  0.3315507366519486 -1.99213794091471 0  -1.306270350133949 0.4139525001060457 0  0.04581442638777788 1.433941906798201 0  1.2924811045488 0.4181367084040713 0  -1.018739780602715 1.759841686573919 0  1.043395506861414 0.9351231729975578 0  1.046029770258835 -0.6542734165253331 0  -1.27627197017838 -0.182084077018378 0  0.6780390154111214 -1.109563358911067 0  -0.5899424280395187 -0.2242083556016088 0  0.01459748532218068 -0.5117400972927941 0  0.09019273160894616 -1.153155294157201 0  0.412888828641405 -1.542575511454083 0  1.282387014308074 -0.1454805808268899 0  -0.6570501752612868 1.258749584579546 0  -1.466335316782693 1.356969602687732 0  0.6018797582556931 1.276781516606075 0  1.825084641204539 -0.9466887712292402 0  -1.561752088048371 -0.5756991815626861 0  -0.1550967147824017 1.637348269986293 0  -0.190292929341345 -1.566925751860733 0  0.1945802260381547 2.010335530092278 0  -0.0189038097818534 0.4443114630428185 0  -1.6617283984425 -0.009787837532933047 0  1.882091206802708 0.4249280650415679 0  -1.233253777664263 -1.679283465374137 0  0.8342578636226485 -1.924907240850164 0  -0.4486442535890498 -1.36690291501962 0  1.19632558285175 -1.078005056505679 0  -0.008273233498616606 -0.1426361422420691 0  -0.2380545005087875 0.008138952279434838 0  -0.2387570170244846 0.2794671063886012 0  2.072969349786878 -0.09019825800076257 0  1.569418463116578 -0.4751918854484005 0  -0.7577455355420017 0.1211249658115294 0  0.7355192385078613 0.2754151233539146 0  0.2205818878188318 0.8354533261751
[...]
<PointData  Vectors="f_3079-0"> 
<DataArray  type="Float64"  Name="f_3079-0"  NumberOfComponents="3" format="ascii">-1.3185267119076149e-02 -7.1637817411613430e-02 0.0000000000000000e+00  2.1993753833925056e-03 -8.4141112585464917e-02 0.0000000000000000e+00  2.0915243356153603e-02 -9.4232111533702312e-02 0.0000000000000000e+00  4.1909653816460314e-02 -1.0201869541563181e-01 0.0000000000000000e+00  6.5631648579265303e-02 -1.0789219292854633e-01 0.0000000000000000e+00  9.1397774151923378e-02 -1.1068885541126905e-01 0.0000000000000000e+00  1.1787559444219239e-01 -1.0879207917535885e-01 0.0000000000000000e+00  1.4109825551055766e-01 -1.0138316904822552e-01 0.0000000000000000e+00  1.5262922962377620e-01 -8.1937294697258134e-02 0.0000000000000000e+00  1.5076663745797911e-01 -5.7224701606523695e-02 0.0000000000000000e+00  1.3832320279801696e-01 -3.1185596115228153e-02 0.0000000000000000e+00  1.1924070401132435e-01 -8.3822638120733366e-03 0.0000000000000000e+00  9.6013481823791283e-02 1.1861936852667142e-02 0.0000000000000000e+00  6.7320796301204244e-02 2.7901766848994022e-02 0.0000000000000000e+00  3.2871152406366698e-02 3.9329105225978982e-02 0.0000000000000000e+00  -5.0518231324807516e-03 4.4302961334468045e-02 0.0000000000000000e+00  -3.9476931608483527e-02 3.7844951627333000e-02 0.0000000000000000e+00  -7.2075464568558123e-02 2.5520588792100601e-02 0.0000000000000000e+00  -1.0049662398110211e-01 7.5548141586922832e-03 0.0000000000000000e+00  -1.2481448402392221e-01 -1.3728698631596072e-02 0.0000000000000000e+00  -1.3961204077439418e-01 -3.6895865471252842e-02 0.0000000000000000e+00  -1.5100927372312903e-01 -6.3511359922472019e-02 0.0000000000000000e+00  -1.5085167455535406e-01 -8.9517764570895733e-02 0.0000000000000000e+00  -1.3682006925849327e-01 -1.0660071871660319e-01 0.0000000000000000e+00  -1.1096833979354771e-01 -1.1117222046325555e-01 0.0000000000000000e+00  -8.5068151563262168e-02 -1.1051511977813772e-01 0.0000000000000000e+00  -6.0450034456174688e-02 -1.0873648077556319e-01 0.0000000000000000e+00  -3.9050224557709311e-02 -1.0523798793091010e-01 0.0000000000000000e+00  -1.7895020816145388e-02 -9.5158558396623058e-02 0.0000000000000000e+00  9.6894906512876142e-04 -8.1516892117130674e-02 0.0000000000000000e+00  1.6661090432889998e-02 -6.8753317009844134e-02 0.0000000000000000e+00  2.9272849299799491e-02 -5.9150146389550531e-02 0.0000000000000000e+00  3.9666614905799875e-02 -4.5237796194072054e-02 0.0000000000000000e+00  4.7278706807043380e-02 -2.9181962843848535e-02 0.0000000000000000e+00  5.3369566375627710e-02 -1.6545712276685959e-02 0.0000000000000000e+00  5.5797945510042843e-02 -3.1088349631874040e-03 0.0000000000000000e+00  5.6006039224411663e-02 9.8433719375866126e-03 0.0000000000000000e+00  5.2587645125949885e-02 2.4729968429522551e-02 0.0000000000000000e+00  5.0002845708538544e-02 3.5178047697837042e-02 0.0000000000000000e+00  4.6412167546209089e-02 4.4227857885031974e-02 0.0000000000000000e+00  3.6295719347785631e-02 5.3384859976987310e-02 0.0000000000000000e+00  2.9184754445129676e-02 5.9158124483876848e-02 0.0000000000000000e+00  2.1505420388521008e-02 6.3206100248590483e-02 0.0000000000000000e+00  1.0164895249815675e-02 6.5372821476009507e-02 0.0000000000000000e+00  -2.5635919210693862e-03 6.7953158134124517e-02 0.0000000000000000e+00  -1.1862348780757948e-02 6.7044925934526628e-02 0.0000000000000000e+00  -2.2925690764486192e-02 6.4673367691645361e-02 0.0000000000000000e+00  -3.2231489272808153e-02 5.9338380529671747e-02 0.0000000000000000e+00  -3.9259716696040219e-02 5.2611632610822343e-02 0.0000000000000000e+00  -4.6427341704962544e-02 4.3566479421011481e-02 0.0000000000000000e+00  -5.4150815905999850e-02 3.1106758224639517e-02 0.0000000000000000e+00  -5.5045638522829093e-02 2.0402052297997943e-02 0.0000000000000000e+00  -5.6816560889660229e-02 7.7184397400250574e-03 0.0000000000000000e+00  -5.5699474270498567e-02 -5.7838612626214016e-03 0.0000000000000000e+00  -5.2072453577219083e-02 -1.9979399357724074e-02 0.0000000000000000e+00  -4.5457855268240407e-02 -3.3575847651934422e-02 0.0000000000000000e+00  -3.7090760871506222e-02 -4.8089419459896594e-02 0.0000000000000000e+00  -2.5968984056398851e-02 -6.0804733856903971e-02 0.0000000000000000e+00  -1.3429084844069342e-01 5.7825605180624601e-03 0.0000000000000000e+00  -1.3432949226926197e-01 -5.8027323259349723e-03 0.0000000000000000e+00  -1.3333597430071090e-01 -1.7314027024320729e-02 0.0000000000000000e+00  -1.3132364247535860e-01 -2.8700264618782733e-02 0.0000000000000000e+00  -1.2840364495095563e-01 -3.9877641003655276e-02 0.0000000000000000e+00  -1.2445860457591917e-01 -5.0766425807579660e-02 0.0000000000000000e+00  -1.1966344980657169e-01 -6.1312398693203651e-02 0.0000000000000000e+00  -1.1396154234670719e-01 -7.1353372997565126e-02 0.0000000000000000e+00  -1.0739696424084737e-01 -8.0895609833108784e-02 0.0000000000000000e+00  -1.0006843768387624e-01 -8.9828819597863499e-02 0.0000000000000000e+00  -9.1957694978989452e-02 -9.8095953776226291e-02 0.0000000000000000e+00  -8.3195233840746716e-02 -1.0564015202180306e-01 0.0000000000000000e+00  -7.3803657872754502e-02 -1.1240904905659442e-01 0.0000000000000000e+00  -6.3876952619361604e-02 -1.1832734944978889e-01 0.0000000000000000e+00  -5.3469767302736011e-02 -1.2338014023109181e-01 0.0000000000000000e+00  -4.2642564952882857e-02 -1.2752874352770455e-01 0.0000000000000000e+00  -3.1526765517708118e-02 -1.3072473436315285e-01 0.0000000000000000e+00  -2.0177602205882588e-02 -1.3291794743320978e-01 0.0000000000000000e+00  -8.6885098181788863e-03 -1.3419007376618058e-01 0.0000000000000000e+00  2.8889973497062283e-03 -1.3440571581139257e-01 0.0000000000000000e+00  1.4439605368880901e-02 -1.3366379059328817e-01 0.0000000000000000e+00  2.5877932352951934e-02 -1.3196237014915038e-01 0.0000000000000000e+00  3.7114927477436971e-02 -1.2921715515121143e-01 0.0000000000000000e+00  4.8103209092198340e-02 -1.2557219876140829e-01 0.0000000000000000e+00  5.8713172737218849e-02 -1.2097270794359100e-01 0.0000000000000000e+00  6.8902467838635142e-02 -1.1547336096267739e-01 0.0000000000000000e+00  7.8564198717909609e-02 -1.0912576622526451e-01 0.0000000000000000e+00  8.7663758509676198e-02 -1.0195822086923328e-01 0.0000000000000000e+00  9.6087532767448414e-02 -9.4059324143133990e-02 0.0000000000000000e+00  1.0380145784860303e-01 -8.5411717066962101e-02 0.0000000000000000e+00  1.1076660223346892e-01 -7.6171821295711845e-02 0.0000000000000000e+00  1.1689640615339347e-01 -6.6370697995086728e-02 0.0000000000000000e+00  1.2220268399600995e-01 -5.6093734595387190e-02 0.0000000000000000e+00  1.2656059842671047e-01 -4.5390954882528388e-02 0.0000000000000000e+00  1.2996512130734009e-01 -3.4323165048711794e-02 0.0000000000000000e+00  1.3246918674758648e-01 -2.3028202204803023e-02 0.0000000000000000e+00  1.3395430596497188e-01 -1.1581302655399020e-02 0.0000000000000000e+00  1.3445400081472852e-01 9.2904185513574912e-07 0.0000000000000000e+00  1.3392563456276205e-01 1.1549883337190852e-02 0.0000000000000000e+00  1.3246567096275369e-01 2.3029284842119517e-02 0.0000000000000000e+00  1.2999938901458427e-01 3.4323592896615220e-02 0.0000000000000000e+00  1.2657188611694339e-01 4.5374500402160046e-02 0.0000000000000000e+00  1.2220712698906405e-01 5.6073505000271875e-02 0.0000000000000000e+00  1.1693890194248754e-01 6.6384685400032090e-02 0.0000000000000000e+00  1.1076275162454693e-01 7.6180641296557536e-02 0.0000000000000000e+00  1.0383249775489276e-01 8.5434321204654495e-02 0.0000000000000000e+00  9.6108565561270010e-02 9.4062181417220864e-02 0.0000000000000000e+00  8.7655071784700639e-02 1.0197033169347232e-01 0.0000000000000000e+00  7.8587052442876393e-02 1.0911572741317660e-01 0.0000000000000000e+00  6.8885211536806337e-02 1.1544512843743138e-01 0.0000000000000000e+00  5.8701165750749545e-02 1.2098743439588489e-01 0.0000000000000000e+00  4.8115685462362709e-02 1.2557068972438259e-01 0.0000000000000000e+00  3.7120116052868954e-02 1.2922097065718935e-01 0.0000000000000000e+00  2.5894550433309533e-02 1.3196353204182829e-01 0.0000000000000000e+00  1.4442899074229451e-02 1.3369599844353047e-01 0.0000000000000000e+00  2.8803986798634617e-03 1.3445620938435321e-01 0.0000000000000000e+00  -8.6941987285403827e-03 1.3418985616166623e-01 0.0000000000000000e+00  -2.0173986956725540e-02 1.3292315440781355e-01 0.0000000000000000e+00  -3.1522697204625763e-02 1.3072865537403408e-01 0.0000000000000000e+00  -4.2644277898731889e-02 1.2749681944560382e-01 0.0000000000000000e+00  -5.3447547833448170e-02 1.2336044419704842e-01 0.0000000000000000e+00  -6.3858041299946586e-02 1.1830942939783883e-01 0.0000000000000000e+00  -7.3800410555666676e-02 1.1241324746211427e-01 0.0000000000000000e+00  -8.3191450436796044e-02 1.0564708740540379e-01 0.0000000000000000e+00  -9.1943679036740056e-02 9.8072543453971081e-02 0.0000000000000000e+00  -1.0002938489429102e-01 8.9805587450097216e-02 0.0000000000000000e+00  -1.0738021698509395e-01 8.0876586942054893e-02 0.0000000000000000e+00  -1.1395680287583242e-01 7.1367464387919285e-02 0.0000000000000000e+00  -1.1967494707925322e-01 6.1305922278336686e-02 0.0000000000000000e+00  -1.2447381235340413e-01 5.0763578008465732e-02 0.0000000000000000e+00  -1.2836810599173543e-01 3.9876996590493367e-02 0.0000000000000000e+00  -1.3133004700543194e-01 2.8690467617864601e-02 0.0000000000000000e+00  -1.3330306830671745e-01 1.7306216338876954e-02 0.0000000000000000e+00  -2.1597038114677869e-03 1.3116767023152162e-01 0.0000000000000000e+00  3.4965703728038074e-03 -7.6305416635172388e-02 0.0000000000000000e+00  -2.7043100357633222e-02 -7.3528802750141231e-02 0.0000000000000000e+00  3.1295557866136574e-02 -7.0928072839544540e-02 0.0000000000000000e+00  -4.1979531398139973e-02 -5.0499903540437145e-02 0.0000000000000000e+00  4.3476446852247164e-02 -4.9447077502601917e-02 0.0000000000000000e+00  -5.5821814754827323e-02 -5.2120656643807439e-02 0.0000000000000000e+00  5.8545949706717081e-02 -5.0506539462702213e-02 0.0000000000000000e+00  -8.9138509564335472e-02 -3.3567546990528274e-02 0.0000000000000000e+00  9.0772141926148020e-02 -2.9730499209411416e-02 0.0000000000000000e+00  1.0046000879352368e-01 2.3173785045708148e-02 0.0000000000000000e+00  -1.0135455973750684e-01 1.8158297018154721e-02 0.0000000000000000e+00  -7.1849400679783224e-02 7.3398397650394548e-02 0.0000000000000000e+00  6.8443521317905862e-02 7.6397876444472657e-02 0.0000000000000000e+00  1.2089540885898453e-02 1.0049819227616795e-01 0.0000000000000000e+00  -3.0464189362284205e-02 5.4528494201043005e-02 0.0000000000000000e+00  3.2105060908580306e-02 5.6170167489580453e-02 0.0000000000000000e+00  -3.0415183996301613e-02 8.6276036599002598e-02 0.0000000000000000e+00  -2.0443521005400044e-02 1.1887496174344986e-01 0.0000000000000000e+00  2.4456294895015458e-02 8.9971496383782962e-02 0.0000000000000000e+00  -2.1880167380813956e-02 -1.0452739677504498e-01 0.0000000000000000e+00  -7.0698614101561849e-02 -7.5452628681946368e-02 0.0000000000000000e+00  -3.4166141765054031e-02 1.0712401531675703e-01 0.0000000000000000e+00  7.5870177391151122e-02 -7.1953399983246860e-02 0.0000000000000000e+00  3.8217740400910229e-02 -1.0480894637478021e-01 0.0000000000000000e+00  2.1909406922504024e-02 1.1594611707313283e-01 0.0000000000000000e+00  1.2890374694004704e-02 -5.6714173629848291e-02 0.0000000000000000e+00  -9.3615644279598648e-02 -5.1658826763886702e-02 0.0000000000000000e+00  9.0876077694755253e-02 -4.7057870153403181e-02 0.0000000000000000e+00  1.2009180547617029e-02 -3.9919485696391553e-02 0.0000000000000000e+00  -1.5598576267889578e-02 -5.6044368137821002e-02 0.0000000000000000e+00  -1.8058406100323693e-02 -4.6292852580095238e-02 0.0000000000000000e+00  -1.0891683423213641e-01 -3.0832323832696677e-02 0.0000000000000000e+00  1.0677817979503421e-01 -2.6953313050701526e-02 0.0000000000000000e+00  -1.1989296012139683e-01 1.1389868931418388e-02 0.0000000000000000e+00  1.1632151724443228e-01 1.6478854494350371e-02 0.0000000000000000e+00  -1.4324547643400182e-02 -6.2836091056893195e-02 0.0000000000000000e+00  1.9252310193176584e-02 -6.3373511824623655e-02 0.0000000000000000e+00  -9.8084238606936214e-02 6.7912680299102024e-02 0.0000000000000000e+00  9.5061277436543190e-02 7.2770014112229844e-02 0.0000000000000000e+00  -2.0525501029809381e-04 -1.1820944839368717e-01 0.0000000000000000e+00  -4.1657666505480286e-02 7.0523803046017047e-02 0.0000000000000000e+00  4.1087085099072725e-02 1.1388431239521134e-01 0.0000000000000000e+00  -4.9177190100151869e-02 -1.0810276408613424e-01 0.0000000000000000e+00  7.0753064965591389e-02 -9.5454777602099514e-02 0.0000000000000000e+00  3.5211079493202353e-02 -6.4406598304212082e-02 0.0000000000000000e+00  3.3773572444391581e-02 -5.1951389987084845e-02 0.0000000000000000e+00  -3.1265491948022417e-02 -6.6869403472535047e-02 0.0000000000000000e+00  7.7957029997757277e-02 -2.6358608220178881e-02 0.0000000000000000e+00  -8.7721745698686071e-02 -2.2169909106546901e-02 0.0000000000000000e+00  -9.2772823138840818e-02 -6.8703357522190728e-02 0.0000000000000000e+00  9.5838850995184827e-02 -6.4225154245753896e-02 0.0000000000000000e+00  -8.1423839169482856e-02 2.8871111079419205e-02 0.0000000000000000e+00  7.7926575889216948e-02 3.1253313359247352e-02 0.0000000000000000e+00  -1.0715177694154401e-01 -4.2915834069431266e-02 0.0000000000000000e+00  1.1026372394972871e-01 -3.7379146914660231e-02 0.0000000000000000e+00  3.7402968953496957e-02 7.1833175318992942e-02 0.0000000000000000e+00  -5.9943191755598750e-02 1.0975122043048187e-01 0.0000000000000000e+00  -1.1911241639097210e-01 4.0347887963929012e-02 0.0000000000000000e+00  -7.0547954333328210e-03 1.2373728021230322e-01 0.0000000000000000e+00  -1.2152639533127109e-01 -1.0656411670548989e-02 0.0000000000000000e+00  5.3305880965096454e-02 -6.1162521361971228e-02 0.0000000000000000e+00  -4.8685523961561408e-03 8.7361069698980873e-02 0.0000000000000000e+00  1.2360431409090708e-01 9.7667868921905016e-03 0.0000000000000000e+00  -1.3891633023886076e-02 1.4044094373595883e-02 0.0000000000000000e+00  -4.5714441682879567e-02 3.3121801949933957e-02 0.0000000000000000e+00  4.5633832240870892e-02 4.1070092815164355e-02 0.0000000000000000e+00  -7.6656572593990932e-02 -1.3299935677952930e-02 0.0000000000000000e+00  1.1231756490246950e-01 5.9847871035885139e-02 0.0000000000000000e+00  6.3950902837556958e-02 1.0892953356391248e-01 0.0000000000000000e+00  -6.1018051095823062e-02 -9.0851124857771665e-02 0.0000000000000000e+00  2.2015640207897792e-02 -1.2081656458921577e-01 0.0000000000000000e+00  -5.1301835049462945e-02 -5.4879542053136623e-02 0.0000000000000000e+00  5.4029325005000139e-03 7.4365920123081561e-02 0.0000000000000000e+00  4.9013854927416327e-02 -5.7025184745450569e-02 0.0000000000000000e+00  -8.1605821628795636e-02 9.6656402701956079e-02 0.0000000000000000e+00  7.6657948333337167e-02 -4.3192189817731113e-03 0.0000000000000000e+00  -5.6844535280776404e-02 -6.4597533578080471e-02 0.0000000000000000e+00  1.4394381188618004e-02 -7.8945085738293411e-02 0.0000000000000000e+00  -2.0756763059943544e-02 -5.8284322084647448e-02 0.0000000000000000e+00  2.1081146360892047e-02 1.2523988004050151e-03 0.0000000000000000e+00  -4.0126441441203364e-03 1.2202006856434316e-01 0.0000000000000000e+00  -1.0439248832206802e-02 -1.7828428675442373e-02 0.0000000000000000e+00  1.4241767284984051e-02 -7.5868967961989414e-02 0.0000000000000000e+00  -1.0887995024930836e-02 -7.8679136471353120e-02 0.0000000000000000e+00  -6.1797989628384349e-02 4.6890708047839451e-02 0.0000000000000000e+00  -1.1072561218553004e-01 5.7458717990308654e-02 0.0000000000000000e+00  5.8117792225648252e-02 4.9566350055123790e-02 0.0000000000000000e+00  1.0772896382539769e-01 -5.6103613685029766e-02 0.0000000000000000e+00  -4.8732126166351510e-02 -5.0587287783589820e-02 0.0000000000000000e+00  -1.4817000878442670e-02 9.1890762856248462e-02 0.0000000000000000e+00  -5.5019774685298416e-03 -7.4331440219535555e-02 0.0000000000000000e+00  1.7296620258951696e-02 1.2329685599528135e-01 0.0000000000000000e+00  -3.3090909170897177e-03 1.1147491435574766e-01 0.0000000000000000e+00  -6.5950748674295789e-02 -5.0511251962667779e-02 0.0000000000000000e+00  1.1458676442097269e-01 -1.3142097058060982e-02 0.0000000000000000e+00  -8.1330672633782311e-02 -9.7262015650742897e-02 0.0000000000000000e+00  5.5624058913438801e-02 -1.1555582167797310e-01 0.0000000000000000e+00  -1.0499942930171243e-03 -6.0404408847606977e-02 0.0000000000000000e+00  4.0303059499062897e-02 -5.4784683720589089e-02 0.0000000000000000e+00  -2.3499224167807401e-03 1.4085716122452208e-01 0.0000000000000000e+00  -1.5697749539309504e-02 1.1772662346825423e-01 0.0000000000000000e+00  -2.4402799029164292e-02 1.0724562623371137e-01 0.0000000000000000e+00  1.2226225878862070e-01 -2.3824706332011978e-02 0.0000000000000000e+00  4.6093579147901242e-02 -5.0427544507357244e-02 0.0000000000000000e+00  -2.6152195712714960e-02 -2.1875940392863800e-02 0.0000000000000000e+00  4.0654875121252008e-02 -4.8164304391874885e-03 0.0000000000000000e+00  2.2888535569549721e-02 7.7006540297023779e-02 0.0000000000000000e+00  -3.0617870716143813e-02 7.4806455799598409e-02 0.0000000000000000e+00  -4.6156595259918512e-02 5.0184192918716432e-02 0.0000000000000000e+00  -1.1806035395803605e-01 -4.8148122259392204e-03 0.0000000000000000e+00  -7.8201889712504066e-02 3.6617506175115520e-02 0.0000000000000000e+00  -3.6350144298979717e-02 -1.2206306311292822e-01 0.0000000000000000e+00  2.2485088746072971e-02 1.0565494794272343e-01 0.0000000000000000e+00  1.1324235072356793e-02 1.1786869839031670e-01 0.0000000000000000e+00  -2.9701203255315410e-02 -8.9955150368725076e-02 0.0000000000000000e+00  -1.7140487966340122e-02 -1.2612597184416541e-01 0.0000000000000000e+00  4.2169957390320027e-02 5.8026407289870449e-02 0.0000000000000000e+00  -9.3202792638209714e-02 -8.4901756836787676e-02 0.0000000000000000e+00  -4.1252217621468371e-02 -6.9260720840571666e-02 0.0000000000000000e+00  -6.2175943261455577e-02 -6.0201298852100779e-02 0.0000000000000000e+00  8.0657095216296687e-02 8.9416431720660230e-02 0.0000000000000000e+00  4.9840249714304091e-02 -9.3019805557779403e-02 0.0000000000000000e+00  -1.0586566108691713e-01 -6.2579500910009328e-02 0.0000000000000000e+00  -2.6146935969633547e-02 1.2658088165037087e-01 0.0000000000000000e+00  7.6074095124847363e-02 -6.3435287228269119e-02 0.0000000000000000e+00  8.7179033923646537e-02 -9.2178391823052416e-02 0.0000000000000000e+00  -1.1983113147933133e-01 -3.1426873414333825e-02 0.0000000000000000e+00  2.8394560095265600e-02 -6.0883699433907097e-02 0.0000000000000000e+00  1.1163064705323756e-02 -2.8833095331319700e-02 0.0000000000000000e+00  -5.4090123218361222e-02 9.1373128954272895e-02 0.0000000000000000e+00  1.1918714640514801e-01 -4.3129344103052733e-02 0.0000000000000000e+00  9.9527508001026166e-02 -7.9955690893979220e-02 0.0000000000000000e+00  7.5507320148099424e-02 7.7176712223240962e-02 0.0000000000000000e+00  1.2903193615902017e-01 -3.3539234653744946e-03 0.0000000000000000e+00  -1.0791050679815850e-01 8.1788992225702399e-03 0.0000000000000000e+00  -5.9664854401012893e-02 -3.9353126784318501e-02 0.0000000000000000e+00  1.1973999969527413e-01 4.9503602394286285e-02 0.0000000000000000e+00  -9.5515071106616278e-02 -3.4591069266794741e-02 0.0000000000000000e+00  -6.5450163069955075e-02 -1.1051568231870963e-01 0.0000000000000000e+00  -6.3344267407884153e-02 -4.2691151683499719e-02 0.0000000000000000e+00  1.2587761230641012e-01 3.3899472331246648e-02 0.0000000000000000e+00  -3.2727261067768010e-03 -4.9755650735071953e-02 0.0000000000000000e+00  7.7965588878322542e-02 -4.2340633411442917e-02 0.0000000000000000e+00  -7.6000064198697370e-02 -6.7212754194519109e-02 0.0000000000000000e+00  8.6566551910010794e-02 9.8880613937352355e-02 0.0000000000000000e+00  7.3010354606592942e-02 4.0894798032033171e-02 0.0000000000000000e+00  -5.3049184408753992e-03 -5.1232633936220524e-02 0.0000000000000000e+00  -3.8535026682170745e-03 -6.0442921745975313e-02 0.000