<?xml version="1.0"?>
<VTKFile type="UnstructuredGrid"  version="0.1"  >
<UnstructuredGrid>
<Piece  NumberOfPoints="1173" NumberOfCells="2198">
<Points>
<DataArray  type="Float64"  NumberOfComponents="3"  format="ascii">-1.011717461416114 0.163154037906849 0  -1.00759797656375 0.05342099525655183 0  -0.9909798931198196 -0.05515564417467422 0  -0.9622130309204013 -0.1612005961513685 0  -0.9215115677167602 -0.2634855964838336 0  -0.8694126612161197 -0.3605989973156282 0  -0.8067261983454164 -0.4509935230314887 0  -0.73476018567065 -0.5335546533791395 0  -0.655627241283225 -0.6065555802280922 0  -0.5706726825927546 -0.6695312571457108 0  -0.4807483194244769 -0.7225792487910581 0  -0.3863662738996739 -0.7661968120978317 0  -0.2883056751155348 -0.7998502551794111 0  -0.1878185832490208 -0.8235622912737699 0  -0.08597605395882071 -0.8369979769237677 0  0.01635139202963652 -0.8403102863288463 0  0.1188724813723003 -0.8333662724151641 0  0.220264096632993 -0.8163751803686986 0  0.3198692426754972 -0.7891944314558536 0  0.4164447748029144 -0.7520115659887315 0  0.5095078771852195 -0.7049460531172674 0  0.5974960015430248 -0.6486213548740879 0  0.6803072180701837 -0.582660468221232 0  0.7570087161103818 -0.5066790860495658 0  0.826118722316418 -0.4213357298060465 0  0.8853309484005871 -0.3284793456301756 0  0.9337316867907182 -0.2297539251339008 0  0.9704519235456316 -0.1265629300282301 0  0.9956237056586453 -0.01943746933456946 0  1.008342002200274 0.08997462741389362 0  1.008486526609304 0.1997412735152086 0  0.9962555402833211 0.3082821930276365 0  0.9718157728693722 0.4150501966088397 0  0.9353644598487845 0.5185903342132594 0  0.8878174266908108 0.6169664617072182 0  0.8292994837789989 0.7094273269808318 0  0.7610246163145606 0.7950236538714822 0  0.6835438525154027 0.8728276726733153 0  0.5984628605347173 0.941450802878261 0  0.5064871500970147 1.000505700539649 0  0.4081042025280078 1.049446366160811 0  0.3055217310967146 1.087438320166692 0  0.1994658990702828 1.114546841731469 0  0.09080652772657034 1.130206904040484 0  -0.01908145256474227 1.134160155660691 0  -0.1283206257061098 1.12619763107877 0  -0.2363115080388316 1.106716210012722 0  -0.3415030738430213 1.075876099589375 0  -0.4425777363175265 1.034121344310384 0  -0.5388070751742806 0.9816964776317864 0  -0.6291064688138523 0.9190752910191524 0  -0.711560875998171 0.847461635563788 0  -0.7859737869734605 0.7671592007335122 0  -0.8510894228619087 0.6792105602531601 0  -0.906061941700147 0.5845196947421043 0  -0.9501250905670874 0.4843505700682825 0  -0.9827260100324433 0.3797961719170243 0  -1.003380450796401 0.2722588153025357 0  -2.350772639085032 0.1012292054947368 0  -2.350776522409583 -0.1012311616075832 0  -2.333372290483475 -0.3029390593767277 0  -2.298689416651786 -0.5024042669546651 0  -2.246994329887592 -0.698150297407251 0  -2.178655833356446 -0.8887280562156499 0  -2.094194497888865 -1.07272933333199 0  -1.99422632962803 -1.248783462382036 0  -1.879491798294037 -1.415594857792172 0  -1.750845217697496 -1.571924775758025 0  -1.609231853284518 -1.716616590543632 0  -1.455707297316319 -1.848599446587194 0  -1.29140378967251 -1.966896673676598 0  -1.117540300394168 -2.070629838910173 0  -0.9354022476962084 -2.159033805756716 0  -0.7463363512486816 -2.23145399150518 0  -0.5517475426061674 -2.287352429243453 0  -0.3530738341190792 -2.326312591308507 0  -0.1517869824190624 -2.34805588816337 0  0.05062600624741985 -2.352408666306334 0  0.2526636664368805 -2.339348803829594 0  0.4528301428959769 -2.308972244759149 0  0.6496430151378753 -2.261494161925163 0  0.8416487889215305 -2.197278490589901 0  1.027421142441492 -2.116792402843204 0  1.205588137391372 -2.02063394278285 0  1.374827626685182 -1.909516099622371 0  1.533890388674299 -1.784259620695028 0  1.681594096997847 -1.645795438113221 0  1.816847954272313 -1.495141169020652 0  1.938652513232252 -1.333421401137817 0  2.046102409175162 -1.161829764095329 0  2.138407914863168 -0.9816378942762521 0  2.21487705454322 -0.7941771547494881 0  2.274946323519635 -0.600833810205225 0  2.31817889578824 -0.403044839388243 0  2.344244663410472 -0.202273565247577 0  2.35295508590043 1.073918944069825e-07 0  2.344241778630267 0.2022704591835738 0  2.318178559113414 0.4030448603253852 0  2.274949756225868 0.6008339024115501 0  2.214878186926472 0.7941755179829317 0  2.138408374606283 0.981635838844266 0  2.046106670380218 1.161831196718543 0  1.938652113219469 1.333422318798816 0  1.816851097368578 1.495143421203725 0  1.681596170369946 1.645795768294761 0  1.533889522566306 1.784260840319851 0  1.374829894604773 1.909515108538834 0  1.205586413365035 2.020631098639913 0  1.027419943539123 2.116793880246501 0  0.8416500172657091 2.197278342263042 0  0.649643546061631 2.261494535937722 0  0.4528317997235698 2.308972355152732 0  0.2526640300021226 2.339352026973065 0  0.0506251538182644 2.352413728714412 0  -0.1517876133281784 2.348055853938034 0  -0.3530734442731927 2.32631311011542 0  -0.5517471489605585 2.287352814096844 0  -0.7463365431028406 2.231450767408782 0  -0.9353999910540356 2.159031832118908 0  -1.117538436885254 2.070628014276257 0  -1.291403452490166 1.966897097961179 0  -1.455706888801195 1.848600165172052 0  -1.609230501766195 1.716614179910323 0  -1.750841294985205 1.571922439534796 0  -1.879490077243814 1.415593000171652 0  -1.994225863111207 1.248784880578755 0  -2.09419565013205 1.072728707877674 0  -2.178657375786606 0.8887277432572263 0  -2.246990760093166 0.6981502415737514 0  -2.298690071216915 0.5024032410567939 0  -2.333368985932184 0.302938253416398 0  -0.0004193952840702102 0.1545571111031786 0  0.1031706749273889 -1.598151748576864 0  -0.7027223791805466 -1.44952210630072 0  0.8135672964914097 -1.388985830308604 0  -1.3476207480459 -0.9290487789454339 0  1.3880011646976 -0.8713733661885503 0  -1.642267852444336 -0.289783370420696 0  1.654950955011258 -0.2191496888102208 0  -1.644669993308972 0.4286607032432863 0  1.626289059959849 0.499498406214735 0  1.287044107033871 1.148657612951782 0  -1.334416489716541 1.091621789735584 0  -0.7845300733459711 1.549566368230669 0  0.7306029735398009 1.575802046186783 0  0.1132162173152416 1.742768183792046 0  -0.5050472054968567 0.0818754115718013 0  0.5083471542643401 0.1514190081664088 0  -0.3023998335142423 0.5474691394029154 0  0.2459685919070636 -0.2764364476726459 0  0.2511963909969351 0.5789205984416597 0  -0.3547277255026407 -1.818749193110161 0  -1.206167585984198 -1.410890359106793 0  -0.3745463279902487 1.827784557342035 0  1.298742867032701 -1.347230645415142 0  0.602764326586311 -1.801195914810204 0  -0.2429072685144815 -0.307516493240213 0  -0.8866938166336734 -1.022646874099516 0  -1.759239786336417 -0.8084509446480503 0  1.784934525759837 -0.6505540242859438 0  -0.2015376874880507 -1.273419634928985 0  0.939756201846679 -0.9565244784190203 0  0.3963271390963348 -1.230133758463442 0  -1.947352838308969 -0.003093794349357271 0  1.901889345157476 0.1529677812766486 0  -1.78147375173348 0.8134215330079287 0  1.669860979666155 0.9376020850740829 0  1.295346307075282 -0.4572300806876601 0  -1.270447342495455 -0.4962724970004255 0  -1.208450647061836 1.501511715576145 0  1.152221439980208 1.551194988121974 0  -0.0005463505833047192 -1.971153096845887 0  -0.4168795074777241 1.448020434096517 0  0.4640562325981384 1.918219641945144 0  -0.7377746444458123 -1.832074220500414 0  1.083114382634325 -1.66077360505871 0  1.426074682169726 0.1283717438033828 0  -0.5316810653701353 -1.12030908647519 0  -1.407713161163516 0.09970714535617925 0  1.287903786914802 0.7335421480793861 0  -1.415543220844384 0.7240127152703406 0  -1.544204964033621 -1.249940197023407 0  1.614974060589427 -1.162010467786491 0  -0.9598037765779528 1.199056511244805 0  0.8937682789765624 1.210317669373773 0  -1.938463055607613 -0.4970421243836292 0  1.974096812926706 -0.3601233602810708 0  0.3685484519501975 1.460429017022103 0  -0.7254800978335801 1.889340349967697 0  -1.672793320865192 1.137976135500651 0  -0.09045526725982116 2.015347192674408 0  -1.985230242909125 0.3450945553845886 0  -1.018420123483086 -0.7184154317813451 0  -0.03834753270135627 0.7840499872525527 0  1.897666016234597 0.6967443575549102 0  0.5743216243681298 -0.1878068462903565 0  -0.6175237172179406 0.403939396264194 0  0.5786158997623988 0.4885453503307653 0  -1.121548953502842 0.8496282878141943 0  1.525368529006083 1.36538732549315 0  0.7785606435941363 1.888819015269416 0  -0.9702257932570323 -1.619316538623122 0  0.3326515186623435 -1.998178769144171 0  -1.308835441886423 0.4112085230033888 0  0.04608457301280288 1.437660202804355 0  1.294931797295171 0.4152854491667988 0  -1.022820071684154 1.764674506709017 0  1.047228404278081 0.9349072120484692 0  1.043187543494796 -0.6575032932042372 0  -1.275552251118949 -0.1860313313052927 0  0.6770011772581243 -1.1124775750153 0  -0.588888370721474 -0.2241457356615886 0  0.01439685311497466 -0.5056390938645769 0  0.08967076916733581 -1.154046715590973 0  0.4136009170056542 -1.546368959852182 0  1.281842614556827 -0.1494145376504576 0  -0.6601400747427061 1.261094119981938 0  -1.47187159739197 1.359842538587247 0  0.6047856478669755 1.279259834108832 0  1.830471089395809 -0.9494939519134917 0  -1.564188694356689 -0.5782285459518656 0  -0.1558375648263238 1.641942808129106 0  -0.1905680282147715 -1.57064232387171 0  0.1954450570511023 2.016500372892043 0  -0.01906926432770788 0.4498852087606059 0  -1.665025935876215 -0.01231340013106644 0  1.887820545023756 0.4242709601886648 0  -1.237320311295952 -1.684146566156674 0  0.8370390665683205 -1.930685031934063 0  -0.4486967533037007 -1.369923135462001 0  1.198340735826703 -1.080744290691709 0  -0.008390729619455643 -0.135593284180843 0  -0.2388393879857529 0.01402528345284755 0  -0.2399771569759428 0.2848293877002868 0  2.079082462726309 -0.09138949331736318 0  1.571723142073973 -0.4777132626737683 0  -0.7590531453276375 0.1200311687918862 0  0.7375519822639238 0.2751743018319552 0  0.2217263145973093 0.8393036
[...]
<PointData  Vectors="f_3101-0"> 
<DataArray  type="Float64"  Name="f_3101-0"  NumberOfComponents="3" format="ascii">-1.1168016506478149e-02 -7.2968964619116602e-02 0.0000000000000000e+00  4.8247073715474527e-03 -8.5102511504298817e-02 0.0000000000000000e+00  2.3683056506792338e-02 -9.4944754416196514e-02 0.0000000000000000e+00  4.4863867532732742e-02 -1.0272201943166187e-01 0.0000000000000000e+00  6.8708758304698650e-02 -1.0853556619994274e-01 0.0000000000000000e+00  9.4340208558125277e-02 -1.1109866137344364e-01 0.0000000000000000e+00  1.2011646805683633e-01 -1.0904604004314744e-01 0.0000000000000000e+00  1.4279974487099661e-01 -1.0088400358289945e-01 0.0000000000000000e+00  1.5356678381314537e-01 -8.1105168288760646e-02 0.0000000000000000e+00  1.5132188171999453e-01 -5.5676324028523870e-02 0.0000000000000000e+00  1.3892603982944432e-01 -2.9326924953769498e-02 0.0000000000000000e+00  1.1994468768585187e-01 -5.9257035848097848e-03 0.0000000000000000e+00  9.6394007164590817e-02 1.4021904710955975e-02 0.0000000000000000e+00  6.7481730607033497e-02 2.9544841372551728e-02 0.0000000000000000e+00  3.3095200009287611e-02 3.9501433134138196e-02 0.0000000000000000e+00  -4.5594123688831225e-03 4.2591986561483705e-02 0.0000000000000000e+00  -3.9468516348691349e-02 3.7951524473342643e-02 0.0000000000000000e+00  -7.2320248000312851e-02 2.6656058549650901e-02 0.0000000000000000e+00  -1.0067919995206452e-01 9.6574216577986934e-03 0.0000000000000000e+00  -1.2465442539944824e-01 -1.1439214596649578e-02 0.0000000000000000e+00  -1.3987538072426811e-01 -3.4863638266795241e-02 0.0000000000000000e+00  -1.5123664044631346e-01 -6.1734460438023275e-02 0.0000000000000000e+00  -1.5193573886372189e-01 -8.7666766469376434e-02 0.0000000000000000e+00  -1.3872267678224595e-01 -1.0579522145007972e-01 0.0000000000000000e+00  -1.1396761364618128e-01 -1.1163490601190630e-01 0.0000000000000000e+00  -8.8142421986284761e-02 -1.1156743414427679e-01 0.0000000000000000e+00  -6.3491961350315151e-02 -1.0918492251505697e-01 0.0000000000000000e+00  -4.1430562000460622e-02 -1.0530578245813209e-01 0.0000000000000000e+00  -2.0156922684995523e-02 -9.5556629284460723e-02 0.0000000000000000e+00  -1.3568525717918820e-03 -8.2591432620219285e-02 0.0000000000000000e+00  1.4466265444448158e-02 -7.0177156305512522e-02 0.0000000000000000e+00  2.7695147340204576e-02 -6.0312973019997503e-02 0.0000000000000000e+00  3.8342192268181099e-02 -4.6511924404720573e-02 0.0000000000000000e+00  4.5955489885621745e-02 -3.0764606804683965e-02 0.0000000000000000e+00  5.2060936050723330e-02 -1.8087654061849815e-02 0.0000000000000000e+00  5.5027845705702731e-02 -4.4500385495175616e-03 0.0000000000000000e+00  5.5682739237096941e-02 8.7281259765424474e-03 0.0000000000000000e+00  5.2466942884164113e-02 2.3173409481309803e-02 0.0000000000000000e+00  4.9816520778032218e-02 3.3750843129813558e-02 0.0000000000000000e+00  4.5912208253727854e-02 4.2972986506184384e-02 0.0000000000000000e+00  3.6218399310570346e-02 5.2475186856889205e-02 0.0000000000000000e+00  2.9058702542438499e-02 5.8533737707699485e-02 0.0000000000000000e+00  2.0982451418009546e-02 6.3039748663325110e-02 0.0000000000000000e+00  9.9035867148200077e-03 6.5782898546688270e-02 0.0000000000000000e+00  -2.4543122208096030e-03 6.7425475260179432e-02 0.0000000000000000e+00  -1.1737143412277388e-02 6.6435588838662296e-02 0.0000000000000000e+00  -2.2803751671483359e-02 6.3479042814096900e-02 0.0000000000000000e+00  -3.2191883811238615e-02 5.8107133282960986e-02 0.0000000000000000e+00  -3.9284386032933397e-02 5.1350482428566380e-02 0.0000000000000000e+00  -4.6259208293631275e-02 4.2318060506104135e-02 0.0000000000000000e+00  -5.3607058011088983e-02 3.0109351341031772e-02 0.0000000000000000e+00  -5.4780845553529377e-02 1.9601538553096234e-02 0.0000000000000000e+00  -5.6132661392869425e-02 6.6272083456042179e-03 0.0000000000000000e+00  -5.4679507189451977e-02 -7.0324674234002174e-03 0.0000000000000000e+00  -5.0811674408440068e-02 -2.1270766491959400e-02 0.0000000000000000e+00  -4.4254371326004002e-02 -3.4689779328588563e-02 0.0000000000000000e+00  -3.5753164874760865e-02 -4.8975333502334434e-02 0.0000000000000000e+00  -2.4512520919866269e-02 -6.1861871458438140e-02 0.0000000000000000e+00  -1.3428449397865497e-01 5.7818951701909390e-03 0.0000000000000000e+00  -1.3432275486380862e-01 -5.8032853686836392e-03 0.0000000000000000e+00  -1.3332940287357628e-01 -1.7312212718562262e-02 0.0000000000000000e+00  -1.3131739999742648e-01 -2.8699037837436134e-02 0.0000000000000000e+00  -1.2839741199534166e-01 -3.9875296477851277e-02 0.0000000000000000e+00  -1.2445265832371719e-01 -5.0764491089108445e-02 0.0000000000000000e+00  -1.1965717311392625e-01 -6.1309982982387747e-02 0.0000000000000000e+00  -1.1395634688630625e-01 -7.1349100436396889e-02 0.0000000000000000e+00  -1.0739120504117805e-01 -8.0892123861437945e-02 0.0000000000000000e+00  -1.0006349424976659e-01 -8.9824121528173831e-02 0.0000000000000000e+00  -9.1953691660078621e-02 -9.8090484172810147e-02 0.0000000000000000e+00  -8.3190448770939868e-02 -1.0563521307678525e-01 0.0000000000000000e+00  -7.3799867737927766e-02 -1.1240323629857660e-01 0.0000000000000000e+00  -6.3874354458137703e-02 -1.1832092518172456e-01 0.0000000000000000e+00  -5.3466994436698043e-02 -1.2337382709315020e-01 0.0000000000000000e+00  -4.2640398620459513e-02 -1.2752214560740838e-01 0.0000000000000000e+00  -3.1525418889394634e-02 -1.3071789754363239e-01 0.0000000000000000e+00  -2.0176283306375664e-02 -1.3291141401414810e-01 0.0000000000000000e+00  -8.6882926586739594e-03 -1.3418309252329158e-01 0.0000000000000000e+00  2.8890900327319200e-03 -1.3439905318737203e-01 0.0000000000000000e+00  1.4438775737882279e-02 -1.3365714952671126e-01 0.0000000000000000e+00  2.5876453027129927e-02 -1.3195554177115459e-01 0.0000000000000000e+00  3.7113494566820289e-02 -1.2921063165089228e-01 0.0000000000000000e+00  4.8101352332121934e-02 -1.2556544089815797e-01 0.0000000000000000e+00  5.8709511136222525e-02 -1.2096677322993189e-01 0.0000000000000000e+00  6.8898892616488919e-02 -1.1546749995995699e-01 0.0000000000000000e+00  7.8560921444855658e-02 -1.0911970291820343e-01 0.0000000000000000e+00  8.7659476514335921e-02 -1.0195288410515697e-01 0.0000000000000000e+00  9.6082094894453768e-02 -9.4055162263408529e-02 0.0000000000000000e+00  1.0379632323486959e-01 -8.5407971721337572e-02 0.0000000000000000e+00  1.1076109499327863e-01 -7.6168610043857624e-02 0.0000000000000000e+00  1.1689120763540151e-01 -6.6367166677097383e-02 0.0000000000000000e+00  1.2219698853261658e-01 -5.6090032757464187e-02 0.0000000000000000e+00  1.2655406644572864e-01 -4.5389371059575405e-02 0.0000000000000000e+00  1.2995894402115307e-01 -3.4321738194797953e-02 0.0000000000000000e+00  1.3246272817761756e-01 -2.3026081385438484e-02 0.0000000000000000e+00  1.3394761243624970e-01 -1.1581604634683421e-02 0.0000000000000000e+00  1.3444732860775194e-01 6.5227221784224043e-07 0.0000000000000000e+00  1.3391928488299529e-01 1.1549471771700003e-02 0.0000000000000000e+00  1.3245890425891851e-01 2.3028894837741766e-02 0.0000000000000000e+00  1.2999308319763050e-01 3.4321173721510737e-02 0.0000000000000000e+00  1.2656527736528972e-01 4.5372743620571782e-02 0.0000000000000000e+00  1.2220113306286193e-01 5.6070440764537571e-02 0.0000000000000000e+00  1.1693347517910511e-01 6.6380486234164426e-02 0.0000000000000000e+00  1.1075755233725706e-01 7.6176718570162880e-02 0.0000000000000000e+00  1.0382658116908741e-01 8.5430747845854804e-02 0.0000000000000000e+00  9.6103718440179897e-02 9.4057136864337185e-02 0.0000000000000000e+00  8.7650743415432469e-02 1.0196482303912408e-01 0.0000000000000000e+00  7.8584117649864962e-02 1.0910941527941619e-01 0.0000000000000000e+00  6.8881619670340344e-02 1.1543968141250681e-01 0.0000000000000000e+00  5.8697474113674195e-02 1.2098140876590338e-01 0.0000000000000000e+00  4.8114211954467863e-02 1.2556388440606286e-01 0.0000000000000000e+00  3.7118440525331489e-02 1.2921459369762303e-01 0.0000000000000000e+00  2.5893168729936133e-02 1.3195680838834922e-01 0.0000000000000000e+00  1.4441394568154110e-02 1.3368929331085597e-01 0.0000000000000000e+00  2.8803497465829850e-03 1.3444927082777203e-01 0.0000000000000000e+00  -8.6927415671145727e-03 1.3418311878364206e-01 0.0000000000000000e+00  -2.0173219550812450e-02 1.3291666490616172e-01 0.0000000000000000e+00  -3.1521088336424023e-02 1.3072197548911663e-01 0.0000000000000000e+00  -4.2641710437904351e-02 1.2749086507487442e-01 0.0000000000000000e+00  -5.3445473145057557e-02 1.2335422427261976e-01 0.0000000000000000e+00  -6.3854904397753154e-02 1.1830366067702787e-01 0.0000000000000000e+00  -7.3796870787414454e-02 1.1240735094721144e-01 0.0000000000000000e+00  -8.3187274123204605e-02 1.0564165196933663e-01 0.0000000000000000e+00  -9.1938694763743362e-02 9.8068455129533633e-02 0.0000000000000000e+00  -1.0002480177729750e-01 8.9801153860346594e-02 0.0000000000000000e+00  -1.0737539037500386e-01 8.0872224276474197e-02 0.0000000000000000e+00  -1.1395147650173011e-01 7.1363025416645159e-02 0.0000000000000000e+00  -1.1966863999853376e-01 6.1303074688853265e-02 0.0000000000000000e+00  -1.2446745891305004e-01 5.0762196563696314e-02 0.0000000000000000e+00  -1.2836221404025738e-01 3.9874470444217054e-02 0.0000000000000000e+00  -1.3132354062648569e-01 2.8690148129628230e-02 0.0000000000000000e+00  -1.3329678726479580e-01 1.7304885245831039e-02 0.0000000000000000e+00  -2.1421119615720407e-03 1.2879220628308366e-01 0.0000000000000000e+00  3.3089791852449874e-03 -7.5431615443039210e-02 0.0000000000000000e+00  -2.6135855313673073e-02 -7.3169099369274099e-02 0.0000000000000000e+00  3.0363593404096046e-02 -7.0709916697829597e-02 0.0000000000000000e+00  -4.1700393887530753e-02 -5.0754612718382955e-02 0.0000000000000000e+00  4.3268550930712024e-02 -4.9635393373641597e-02 0.0000000000000000e+00  -5.5234139965811682e-02 -5.1899607104566967e-02 0.0000000000000000e+00  5.7971341363515790e-02 -5.0453523348928657e-02 0.0000000000000000e+00  -8.8450270942151021e-02 -3.3768312229795878e-02 0.0000000000000000e+00  9.0162665748950377e-02 -2.9872169680120263e-02 0.0000000000000000e+00  1.0015609230590122e-01 2.2715517623848474e-02 0.0000000000000000e+00  -1.0105815830853364e-01 1.7646851335952073e-02 0.0000000000000000e+00  -7.1803962572146066e-02 7.2968048156101861e-02 0.0000000000000000e+00  6.8465465624058391e-02 7.5805174100146186e-02 0.0000000000000000e+00  1.2146034247581488e-02 1.0041425341482864e-01 0.0000000000000000e+00  -2.9251488103134691e-02 5.2500677354870531e-02 0.0000000000000000e+00  3.0856341754364976e-02 5.4240425245970593e-02 0.0000000000000000e+00  -3.0090441180938766e-02 8.4707462699474476e-02 0.0000000000000000e+00  -2.1024918208353512e-02 1.1723529836376201e-01 0.0000000000000000e+00  2.4082950097077067e-02 8.8798511697538204e-02 0.0000000000000000e+00  -2.1571873395581927e-02 -1.0413820160740046e-01 0.0000000000000000e+00  -7.0189089730924761e-02 -7.5671955478709085e-02 0.0000000000000000e+00  -3.4264194270859465e-02 1.0684157429192188e-01 0.0000000000000000e+00  7.5428766168805741e-02 -7.2210311735883881e-02 0.0000000000000000e+00  3.7789710159913809e-02 -1.0460522584516752e-01 0.0000000000000000e+00  2.2202867380592926e-02 1.1464469072526967e-01 0.0000000000000000e+00  1.3787442921264307e-02 -5.6946268472377694e-02 0.0000000000000000e+00  -9.3578985060451508e-02 -5.1638872030606749e-02 0.0000000000000000e+00  9.0729887795913150e-02 -4.6988563762401139e-02 0.0000000000000000e+00  1.2428876994421892e-02 -3.8387137118368574e-02 0.0000000000000000e+00  -1.6472769355788005e-02 -5.6377135438811142e-02 0.0000000000000000e+00  -1.8982793992784942e-02 -4.5083082213293955e-02 0.0000000000000000e+00  -1.0869462624164941e-01 -3.0679713353958055e-02 0.0000000000000000e+00  1.0654525443111731e-01 -2.6861342472392209e-02 0.0000000000000000e+00  -1.1967072100752182e-01 1.1269570437511407e-02 0.0000000000000000e+00  1.1604468238191711e-01 1.6366064020760091e-02 0.0000000000000000e+00  -1.5697989262962047e-02 -6.2358137197356417e-02 0.0000000000000000e+00  2.0109638542110970e-02 -6.3175652281583783e-02 0.0000000000000000e+00  -9.8055527132175677e-02 6.7659820443391139e-02 0.0000000000000000e+00  9.4955245008446196e-02 7.2496927077842777e-02 0.0000000000000000e+00  -2.1630464887533035e-04 -1.1795504259012486e-01 0.0000000000000000e+00  -4.1652694002574576e-02 6.9660544041526731e-02 0.0000000000000000e+00  4.1235054111333096e-02 1.1370905548840608e-01 0.0000000000000000e+00  -4.8746569297266312e-02 -1.0802796154893290e-01 0.0000000000000000e+00  7.0291050903038971e-02 -9.5557791105180853e-02 0.0000000000000000e+00  3.4114653791723244e-02 -6.4470474089702037e-02 0.0000000000000000e+00  3.4947494753112505e-02 -5.1256368818236059e-02 0.0000000000000000e+00  -2.9901685399001836e-02 -6.7104557378510205e-02 0.0000000000000000e+00  7.7017130230328620e-02 -2.7071694441306148e-02 0.0000000000000000e+00  -8.7009569303484149e-02 -2.2699629960054413e-02 0.0000000000000000e+00  -9.2574733662938197e-02 -6.8915475671418105e-02 0.0000000000000000e+00  9.5695684474522064e-02 -6.4407047434061601e-02 0.0000000000000000e+00  -8.1226676130040684e-02 2.8162131162268993e-02 0.0000000000000000e+00  7.7495151892242431e-02 3.0377003096435477e-02 0.0000000000000000e+00  -1.0709539407889448e-01 -4.2760206607494015e-02 0.0000000000000000e+00  1.1016294686850912e-01 -3.7301789604374795e-02 0.0000000000000000e+00  3.7542712623501243e-02 7.1159261330151768e-02 0.0000000000000000e+00  -5.9962727710918318e-02 1.0958297904915629e-01 0.0000000000000000e+00  -1.1900035786948536e-01 4.0205468539624464e-02 0.0000000000000000e+00  -7.0936422527293581e-03 1.2366636159088833e-01 0.0000000000000000e+00  -1.2133392047773758e-01 -1.0587225854471425e-02 0.0000000000000000e+00  5.3829092323945858e-02 -6.1518456530888277e-02 0.0000000000000000e+00  -4.7537166957331541e-03 8.6387703068546026e-02 0.0000000000000000e+00  1.2342002294563148e-01 9.8088521603105581e-03 0.0000000000000000e+00  -1.5231002230663680e-02 1.2787863849836269e-02 0.0000000000000000e+00  -4.4756688930454848e-02 3.1115540602621342e-02 0.0000000000000000e+00  4.4632171027036011e-02 3.9627940052946037e-02 0.0000000000000000e+00  -7.5900381714629539e-02 -1.4236205708642763e-02 0.0000000000000000e+00  1.1220005974676221e-01 5.9765929029505449e-02 0.0000000000000000e+00  6.4029757210329927e-02 1.0873371312653773e-01 0.0000000000000000e+00  -6.0439007848992157e-02 -9.0898485594496564e-02 0.0000000000000000e+00  2.1838595780669937e-02 -1.2065883077650920e-01 0.0000000000000000e+00  -5.0024821239178160e-02 -5.5593384177437984e-02 0.0000000000000000e+00  5.2476078809562971e-03 7.4533958826000599e-02 0.0000000000000000e+00  4.7731850332806601e-02 -5.7684129476399192e-02 0.0000000000000000e+00  -8.1603290699928582e-02 9.6516432290235751e-02 0.0000000000000000e+00  7.6202126280979110e-02 -5.3238456540289749e-03 0.0000000000000000e+00  -5.6991345118827197e-02 -6.5417455152316187e-02 0.0000000000000000e+00  1.6333130556356296e-02 -7.8936109733493090e-02 0.0000000000000000e+00  -2.1983720006844204e-02 -5.7940942272154357e-02 0.0000000000000000e+00  2.2599876292319427e-02 1.3981460920655471e-05 0.0000000000000000e+00  -4.0742381711754991e-03 1.2099666646169045e-01 0.0000000000000000e+00  -1.0560367660685643e-02 -1.7214310621242544e-02 0.0000000000000000e+00  1.3641729026857447e-02 -7.5129449072106461e-02 0.0000000000000000e+00  -1.2465292189523292e-02 -7.8917556277640064e-02 0.0000000000000000e+00  -6.1659951121395960e-02 4.6205038215090873e-02 0.0000000000000000e+00  -1.1066397053919888e-01 5.7270457456397299e-02 0.0000000000000000e+00  5.8101979419002699e-02 4.8582461814832945e-02 0.0000000000000000e+00  1.0768305125871136e-01 -5.6143419122072172e-02 0.0000000000000000e+00  -4.8428339066525827e-02 -5.0418649227299148e-02 0.0000000000000000e+00  -1.5010876076651851e-02 9.1577526461009487e-02 0.0000000000000000e+00  -5.2270814310727892e-03 -7.3353932672494529e-02 0.0000000000000000e+00  1.7369869435017737e-02 1.2323580736001945e-01 0.0000000000000000e+00  -3.2536570630602910e-03 1.0986553454222697e-01 0.0000000000000000e+00  -6.5233575121483672e-02 -5.0419717378113890e-02 0.0000000000000000e+00  1.1433769117586493e-01 -1.3081066836649228e-02 0.0000000000000000e+00  -8.0998572956557421e-02 -9.7415293125524188e-02 0.0000000000000000e+00  5.5332162281000442e-02 -1.1556481575088931e-01 0.0000000000000000e+00  -1.1427241516374317e-04 -5.9414245976058939e-02 0.0000000000000000e+00  3.9769662945605688e-02 -5.5163221983719903e-02 0.0000000000000000e+00  -2.3464858252747775e-03 1.3810701534971392e-01 0.0000000000000000e+00  -1.5139490912217861e-02 1.1521479608216030e-01 0.0000000000000000e+00  -2.3934270798846431e-02 1.0525118867296411e-01 0.0000000000000000e+00  1.2219549142104151e-01 -2.3739922067268021e-02 0.0000000000000000e+00  4.5487869920288818e-02 -5.0253232922733204e-02 0.0000000000000000e+00  -2.4211397905052803e-02 -2.3155477355009727e-02 0.0000000000000000e+00  3.9225083183327979e-02 -6.3415069807109059e-03 0.0000000000000000e+00  2.2657866321724594e-02 7.6574175124821578e-02 0.0000000000000000e+00  -3.0279709954017329e-02 7.3542859828400406e-02 0.0000000000000000e+00  -4.5707557214500809e-02 4.8698018757024474e-02 0.0000000000000000e+00  -1.1779276600704996e-01 -4.8577972321289997e-03 0.0000000000000000e+00  -7.8459056450041059e-02 3.7111928452200203e-02 0.0000000000000000e+00  -3.6118518639392194e-02 -1.2198573606858962e-01 0.0000000000000000e+00  2.1976766783161399e-02 1.0376711289913271e-01 0.0000000000000000e+00  1.0759523102923137e-02 1.1541542840528614e-01 0.0000000000000000e+00  -2.9093803664947182e-02 -8.9522830724113031e-02 0.0000000000000000e+00  -1.7034483827372462e-02 -1.2600144354967235e-01 0.0000000000000000e+00  4.1711503962599004e-02 5.7019375721879872e-02 0.0000000000000000e+00  -9.2951155181749678e-02 -8.5092380561980388e-02 0.0000000000000000e+00  -4.0427508331039939e-02 -6.9301384310834033e-02 0.0000000000000000e+00  -6.1760542099926950e-02 -6.0493232542116408e-02 0.0000000000000000e+00  8.0647784243256027e-02 8.9110059512719136e-02 0.0000000000000000e+00  4.9238966592261645e-02 -9.2907987409447709e-02 0.0000000000000000e+00  -1.0580852291721263e-01 -6.2670285238679985e-02 0.0000000000000000e+00  -2.6203195545315985e-02 1.2649527547839581e-01 0.0000000000000000e+00  7.6938178562336521e-02 -6.3149574687550322e-02 0.0000000000000000e+00  8.6875330464857223e-02 -9.2350417293815615e-02 0.0000000000000000e+00  -1.1976822827698481e-01 -3.1271836853560976e-02 0.0000000000000000e+00  2.7482572059616298e-02 -6.1006677157358823e-02 0.0000000000000000e+00  8.9027395899628336e-03 -3.0430675149761936e-02 0.0000000000000000e+00  -5.4107148255348118e-02 9.0947950565824109e-02 0.0000000000000000e+00  1.1915468211176836e-01 -4.3086044241303904e-02 0.0000000000000000e+00  9.9341216556484438e-02 -8.0129249507407269e-02 0.0000000000000000e+00  7.5940509552919366e-02 7.8818195241211614e-02 0.0000000000000000e+00  1.2895884825811110e-01 -3.2620143399382461e-03 0.0000000000000000e+00  -1.0756414700510941e-01 7.8157621099284348e-03 0.0000000000000000e+00  -5.8532552827994702e-02 -4.0165673310200510e-02 0.0000000000000000e+00  1.1961949500036696e-01 4.9484874744733197e-02 0.0000000000000000e+00  -9.5046200595064037e-02 -3.4535973666800765e-02 0.0000000000000000e+00  -6.5123627139444071e-02 -1.1058079549794810e-01 0.0000000000000000e+00  -6.4575794099013081e-02 -4.1448558947678488e-02 0.0000000000000000e+00  1.2576222333861875e-01 3.3937077911157125e-02 0.0000000000000000e+00  -3.6828893470403348e-03 -4.8599186401885687e-02 0.0000000000000000e+00  7.7339166629232653e-02 -4.2347406412608986e-02 0.0000000000000000e+00  -7.6624427046848673e-02 -6.6938990220405128e-02 0.0000000000000000e+00  8.6538360895758254e-02 9.8788019706790547e-02 0.0000000000000000e+00  7.2902202892874468e-02 4.1376720452576211e-02 0.0000000000000000e+00  -4.7663428719941581e-03 -5.1624269683216886e-02 0.0000000000000000e+00  -2.7453965696820439e-03 -6.0221265281306544e-02 0.00