<?xml version="1.0"?>
<VTKFile type="UnstructuredGrid"  version="0.1"  >
<UnstructuredGrid>
<Piece  NumberOfPoints="995" NumberOfCells="1854">
<Points>
<DataArray  type="Float64"  NumberOfComponents="3"  format="ascii">-0.9946961671275085 0.0477877159546358 0  -0.9862248949941972 -0.0612184172550275 0  -0.9649250017438531 -0.1690019661347687 0  -0.9313085193366654 -0.2733268227172997 0  -0.885542649712826 -0.3734756272006629 0  -0.829093469093571 -0.4668112096009679 0  -0.7630459155422643 -0.5522814038862033 0  -0.6898311640630066 -0.6279159909239885 0  -0.6123584704032111 -0.6927135895349013 0  -0.5306389262627766 -0.7479106982524475 0  -0.4444598984083927 -0.7946636260061071 0  -0.3545859103479345 -0.8326038054821251 0  -0.2614397297972726 -0.8618547619284398 0  -0.1662493136961065 -0.8821223317429595 0  -0.06978922732408557 -0.8932126239888447 0  0.02735405788001772 -0.8951470158835811 0  0.1240652559183041 -0.8878602641043888 0  0.22051776988618 -0.8713769338117393 0  0.3146222456964201 -0.8459180721247825 0  0.4056497182021521 -0.8117756623195312 0  0.4937319912889191 -0.7685006190010053 0  0.5769908292523189 -0.7170757515011321 0  0.655906578182353 -0.6567874106314087 0  0.7314132172707005 -0.5857764106478014 0  0.8008412725728438 -0.5042796373837301 0  0.8616625792908432 -0.4141713289680715 0  0.9121628809108573 -0.317110552483951 0  0.9509817460988464 -0.2146633161009066 0  0.9776506462744842 -0.1088679014689581 0  0.9919870227111874 0.0001302344891821704 0  0.9932895966262265 0.1097586489519396 0  0.9817791285346876 0.2186773177333168 0  0.9579001350305063 0.3247571172998301 0  0.9219684048919925 0.4273212280244297 0  0.8744077149025635 0.5256443904571539 0  0.8166217363856868 0.617488497189417 0  0.7483924176783913 0.7027805583502255 0  0.6713747822604692 0.7795483969279503 0  0.5863012026015321 0.8473167189483214 0  0.4934321955379251 0.9059415005821655 0  0.3952121359839244 0.9538931217538309 0  0.2930063137323533 0.9907847271329212 0  0.18724526244228 1.01644360995721 0  0.07825879008882071 1.030737736137623 0  -0.03121849563698562 1.033243855821963 0  -0.1403142141254341 1.023951045713533 0  -0.247504055356507 1.003125049172003 0  -0.351779404422153 0.970707955209529 0  -0.4519754125325406 0.9275433121261626 0  -0.546326687985275 0.8741303636652892 0  -0.6350915984537088 0.8100120012934368 0  -0.716020946638279 0.7367638428301034 0  -0.7879277650948536 0.6555287585453187 0  -0.8508935911337023 0.5660181965048752 0  -0.9031570216058915 0.4703501444848696 0  -0.9443119576063964 0.3689827794651743 0  -0.9734139810808891 0.2643098102165869 0  -0.9903007507133887 0.1571104377512741 0  -2.172446495639435 0.1019388525083133 0  -2.172447987769667 -0.1019429816857406 0  -2.153354250067997 -0.3049188935994574 0  -2.115332384189217 -0.5052260856843712 0  -2.058737509177761 -0.7010864272103167 0  -1.9840283471859 -0.8907888471481028 0  -1.891898182824474 -1.072663657076236 0  -1.783148950886505 -1.245112350293371 0  -1.658717714748683 -1.406618865460306 0  -1.519714234974165 -1.555763286387754 0  -1.367346452698324 -1.69123203819072 0  -1.202975055420209 -1.81184719589712 0  -1.028019632147967 -1.916528899579053 0  -0.8440407659913082 -2.004379538008857 0  -0.6526323797225252 -2.074610302870779 0  -0.455503859927795 -2.126608690142965 0  -0.2543564630832384 -2.159918330215165 0  -0.05098812141344596 -2.174245567253989 0  0.1528385133350759 -2.169457686912035 0  0.3553194738345071 -2.145614175586106 0  0.5546766364573076 -2.102921727363456 0  0.7491596309091847 -2.041732111664229 0  0.9370596050216795 -1.962615844918905 0  1.116722205946779 -1.866234167908253 0  1.286573448320633 -1.753462991792097 0  1.445117985356974 -1.625289560925564 0  1.590965918538525 -1.482819926106729 0  1.722819577249585 -1.327323975857639 0  1.839539102222023 -1.160160377090767 0  1.940101624068141 -0.9828129589738164 0  2.023600834294972 -0.7968130811787687 0  2.089324948028012 -0.6038201284996696 0  2.136686704632456 -0.4055196803183266 0  2.165272047827269 -0.2036556965574783 0  2.174837171312284 -4.720454126089945e-06 0  2.165273104310157 0.2036522302210658 0  2.136688672825389 0.4055170458759983 0  2.089335359384825 0.6038231302296985 0  2.02360374484006 0.7968120673286174 0  1.940105641704056 0.9828125838069689 0  1.839553224122508 1.160162739218428 0  1.722820234208533 1.327320531337853 0  1.590967797491895 1.482821767600829 0  1.445115347213604 1.625281823476781 0  1.28657195116573 1.753463841911082 0  1.116722169530038 1.866237235515368 0  0.9370614938234815 1.962616680891769 0  0.7491627791057088 2.041740072693565 0  0.5546784074452012 2.102922016729341 0  0.3553195087724321 2.145622034948396 0  0.1528408360959521 2.169467505198107 0  -0.05098485445278323 2.174236976083111 0  -0.2543617228186446 2.159912140611002 0  -0.4555022795902111 2.12661028755059 0  -0.6526348368956583 2.074603981495244 0  -0.8440389322613846 2.004381785557856 0  -1.028024472077351 1.916537851406512 0  -1.202972558207757 1.811849679360356 0  -1.367355192911715 1.69123615542558 0  -1.519714910562417 1.555764285705657 0  -1.658719906936706 1.406623109338817 0  -1.783151169612668 1.245112974146469 0  -1.891907350829929 1.072667274360949 0  -1.98404223307167 0.8907878603340172 0  -2.058728046377746 0.7010848824766857 0  -2.115342644639725 0.5052200036485432 0  -2.153355858488214 0.3049243879386779 0  0.001052991500986407 0.09522361345052863 0  0.3006073431212024 -1.516347704306569 0  -0.3715561153329559 -1.500937814937933 0  0.9165674262953672 -1.25377185620667 0  -0.9337892791049459 -1.246353287562103 0  1.36061461377908 -0.778521545165341 0  -1.396549552175771 -0.7156859031066587 0  1.58096398946317 -0.08862940339496631 0  -1.585324731153844 -0.01493642462605769 0  1.516341785103436 0.4991972513474815 0  -1.496156641255929 0.5559910341134433 0  1.227314820164155 1.027640614955466 0  -1.180926165151466 1.082028121588361 0  0.03478614694200642 1.604375017978831 0  0.6301529231093986 1.477346521848324 0  -0.6258422145625349 1.473352736511674 0  -0.5054181372132371 0.05349098535413647 0  0.5067962726328312 0.08111619386609041 0  -0.222925590065266 -0.3359346050070057 0  -0.2613175108136152 0.4934433600168239 0  0.2495234886195456 0.5002408159816174 0  0.2514375443347573 -0.3270365610072269 0  0.6919452036555926 -1.639939195330551 0  -0.7631840979175499 -1.610689866893158 0  -0.04135494195052702 -1.757805180166601 0  0.8477039609048624 1.139939303854986 0  1.127274492608531 1.404709179682121 0  1.373105573757851 -1.162705827152159 0  1.676900867746495 -0.4938970227846321 0  1.301707976367363 -0.3664069502534145 0  -1.341179796572408 -1.128055572810339 0  -1.72632231632658 -0.5049000713330847 0  -1.367054676517244 -0.3401770740970462 0  1.788730730019616 0.2390509178399242 0  1.57636625735648 0.8822894987558454 0  -1.025184612813024 1.456032541937026 0  -1.535663193889106 0.9439332512574312 0  0.3823232214851994 1.769766086230381 0  -0.2982957519435765 1.787335808465104 0  -1.779971321571963 0.3153576795509652 0  -1.022932888391643 -0.8666849911705057 0  -0.03342478438666899 -1.298978528457849 0  0.5221586702159171 -1.19910930494245 0  -0.5701160090429715 -1.151692907119436 0  0.9840952097397035 -0.8835422495407691 0  -0.8093013528409936 1.139310901196863 0  -0.2633894610859776 1.372603118794659 0  -1.17612553691684 0.7156644672916909 0  1.199967451090129 0.6267828424548021 0  1.176758532892401 -1.451649969548629 0  -0.5506411034829601 -0.2843327417168002 0  1.320093908244806 0.2098938527878189 0  -0.5852644009710729 0.3735601549298923 0  0.5721495299117447 -0.2539542197335646 0  0.2935436820797518 1.352994845480566 0  -1.859535643554595 -0.1821820718381022 0  0.4239538076735697 -1.81446754573419 0  -0.4778881665836837 -1.807941248032142 0  -1.336718752524674 0.2308953015273667 0  0.5742348014181509 0.4075268385047583 0  0.9047493890455106 1.635643086980631 0  -1.066795551387209 -1.532436416271999 0  0.01757387641075977 0.7240763083500087 0  1.100965461542564 -0.6004283743285441 0  -1.132810626241953 -0.5458119514220765 0  1.604913526557707 -0.9688251066372772 0  -1.602003104808311 -0.9567949172725001 0  -0.8325740422557247 1.692540231567296 0  0.018054993690033 -0.5482852508973621 0  1.888034021984959 -0.09583975378730289 0  -1.282873596542519 -0.06353909522597199 0  -1.767640752746571 0.6856717256855619 0  1.279800734193183 -0.08131869729202411 0  1.765191510714631 0.6627226003664956 0  1.486184727142271 1.162567613043624 0  -1.437034760805559 1.221640091032698 0  1.001306681635923 0.8403428115443866 0  0.04491733826236376 1.898974706918511 0  0.5576357951277641 1.192673005000034 0  0.2396074020780787 -1.228360993418345 0  -0.5132861698155743 1.205823580850621 0  -0.282620500623215 -1.163676650203584 0  0.7098190305426978 -0.9884190345549314 0  -0.9637462992461778 0.9006087421408705 0  0.01392950537514025 1.327240135577312 0  -0.7499353183217562 -0.9494013243046172 0  -0.5658872099931839 1.739487220804679 0  0.66237954235049 1.778895803152757 0  0.9226265726630154 -1.51592302191027 0  -0.7386529860050686 -0.05880431117205105 0  0.7459595751570532 0.145393853355488 0  -1.251506931505593 0.4702599567866683 0  -1.833441985078299 0.06849735922056822 0  -0.2600408998218168 0.215103154903201 0  -0.2539574138626613 -0.0589361323503957 0  -0.3053608392323062 0.731986864129419 0  -0.3766761888931034 -0.5359082709979577 0  -0.004102564600955694 0.3699714549073657 0  0.2558565151578668 -0.0430770567665642 0  0.2617001479879845 0.2289922865737172 0  -1.614074484024319 -0.259141858711826 0  0.7020791699192611 -1.385340626161902 0  0.2510903188598486 -0.5861965341072496 0  0.4591601965026182 0.6361400322470664 0  0.01129897117226378 -0.1806308724013025 0  0.8631196550951241 1.389675606604495 0  -0.7133717259731804 -1.363634698331202 0  -1.176454360645143 -1.310791114127352 0  1.758312684705274 -0.7486821317837368 0  1.370630626379393 1.383232376299469 0  -1.641998334257457 -0.7247675535151107 0  -0.4037001248171027 1.565293956457102 0  -1.222131981186509 1.32078392733
[...]
<PointData  Vectors="f_2189-0"> 
<DataArray  type="Float64"  Name="f_2189-0"  NumberOfComponents="3" format="ascii">-1.6223823244187755e-02 -8.5137929229527315e-02 0.0000000000000000e+00  2.7646069223638205e-03 -9.7101623784826965e-02 0.0000000000000000e+00  2.4755658492945937e-02 -1.0787961346682823e-01 0.0000000000000000e+00  4.8745203541540300e-02 -1.1491241175080952e-01 0.0000000000000000e+00  7.4984181438789002e-02 -1.1967296559719920e-01 0.0000000000000000e+00  1.0029157635711992e-01 -1.1735912049985057e-01 0.0000000000000000e+00  1.2231409240883230e-01 -1.0827436859113089e-01 0.0000000000000000e+00  1.3497679071792104e-01 -9.0038155920577817e-02 0.0000000000000000e+00  1.3402847425530057e-01 -6.4485005624123681e-02 0.0000000000000000e+00  1.2470631926117957e-01 -3.8703611408309108e-02 0.0000000000000000e+00  1.1104291771243271e-01 -1.5784548412719184e-02 0.0000000000000000e+00  9.1917718302240908e-02 4.3278392460081904e-03 0.0000000000000000e+00  6.9565209925691027e-02 1.9987737161727116e-02 0.0000000000000000e+00  4.4970636425833620e-02 3.1121098728614918e-02 0.0000000000000000e+00  1.8973619002914239e-02 3.7447289902434525e-02 0.0000000000000000e+00  -7.5015626687567000e-03 3.8367839178209080e-02 0.0000000000000000e+00  -3.3826052161211782e-02 3.4588769175215049e-02 0.0000000000000000e+00  -5.7993912923109292e-02 2.5921634703627298e-02 0.0000000000000000e+00  -8.0880955857475886e-02 1.2324715696415217e-02 0.0000000000000000e+00  -1.0209847130693013e-01 -6.0113777221803711e-03 0.0000000000000000e+00  -1.1745173742480321e-01 -2.7282785007350398e-02 0.0000000000000000e+00  -1.2984937056516074e-01 -5.2618154421711895e-02 0.0000000000000000e+00  -1.3590189413522516e-01 -7.9309247069209485e-02 0.0000000000000000e+00  -1.2844899217782133e-01 -1.0048842219018297e-01 0.0000000000000000e+00  -1.0993947756246678e-01 -1.1354148579455714e-01 0.0000000000000000e+00  -8.5927379309915772e-02 -1.1785620417247344e-01 0.0000000000000000e+00  -6.0012355174067555e-02 -1.1651392346818397e-01 0.0000000000000000e+00  -3.5302699419938750e-02 -1.1109486791264142e-01 0.0000000000000000e+00  -1.2914575182097631e-02 -1.0339815439681969e-01 0.0000000000000000e+00  7.5884179008197444e-03 -9.0869216169520345e-02 0.0000000000000000e+00  2.4955606555336952e-02 -7.7140046521384245e-02 0.0000000000000000e+00  3.9319283152155493e-02 -6.2128735490550833e-02 0.0000000000000000e+00  5.0887789107598454e-02 -4.7820785545484037e-02 0.0000000000000000e+00  5.9510687329712993e-02 -3.2928730690834400e-02 0.0000000000000000e+00  6.4600436220490526e-02 -1.6156643075180232e-02 0.0000000000000000e+00  6.8086534359974790e-02 -1.7384900278032587e-03 0.0000000000000000e+00  6.7507776995381463e-02 1.4133696199825853e-02 0.0000000000000000e+00  6.5299593303330447e-02 2.7869461744997180e-02 0.0000000000000000e+00  6.1030617552529656e-02 4.0254455644666412e-02 0.0000000000000000e+00  5.2046441089305638e-02 5.2820019393925048e-02 0.0000000000000000e+00  4.2852927239318779e-02 6.2395971552641004e-02 0.0000000000000000e+00  3.3541174754636610e-02 6.9384444835845688e-02 0.0000000000000000e+00  2.2951503422085150e-02 7.4463516101555438e-02 0.0000000000000000e+00  8.7660549210229703e-03 7.7708733763190596e-02 0.0000000000000000e+00  -3.9881741508166852e-03 7.8284673678241656e-02 0.0000000000000000e+00  -1.7315310976215286e-02 7.6431874665140773e-02 0.0000000000000000e+00  -2.9288501312971782e-02 7.2137887649177349e-02 0.0000000000000000e+00  -4.0401837764224680e-02 6.5571230505936912e-02 0.0000000000000000e+00  -5.0136028462412531e-02 5.6907195066714773e-02 0.0000000000000000e+00  -5.6702841386848404e-02 4.7220147768577025e-02 0.0000000000000000e+00  -6.3906485672017344e-02 3.4057947194335574e-02 0.0000000000000000e+00  -6.7962356275922980e-02 1.9935002315838019e-02 0.0000000000000000e+00  -6.8091420915553397e-02 6.4276294235838397e-03 0.0000000000000000e+00  -6.7474265613373469e-02 -1.0444793551278435e-02 0.0000000000000000e+00  -6.3041228803544999e-02 -2.6301326842135937e-02 0.0000000000000000e+00  -5.5989026811576664e-02 -4.3198149992313778e-02 0.0000000000000000e+00  -4.5349818868681509e-02 -5.7477293591882576e-02 0.0000000000000000e+00  -3.2133192790689769e-02 -7.0702041594300727e-02 0.0000000000000000e+00  -1.2701401812462776e-01 5.9595401867065566e-03 0.0000000000000000e+00  -1.2702023271810847e-01 -5.9771053491242832e-03 0.0000000000000000e+00  -1.2589546368390492e-01 -1.7809933834767776e-02 0.0000000000000000e+00  -1.2364746429847229e-01 -2.9537125837193274e-02 0.0000000000000000e+00  -1.2037734178189638e-01 -4.0977083190168691e-02 0.0000000000000000e+00  -1.1596450429044973e-01 -5.2065751134381534e-02 0.0000000000000000e+00  -1.1058743540715230e-01 -6.2705609457960804e-02 0.0000000000000000e+00  -1.0426817157908284e-01 -7.2791592757060999e-02 0.0000000000000000e+00  -9.6985046209758091e-02 -8.2240018823913269e-02 0.0000000000000000e+00  -8.8872290548809602e-02 -9.0958707888552218e-02 0.0000000000000000e+00  -7.9937919740291019e-02 -9.8869124804082206e-02 0.0000000000000000e+00  -7.0353153560144724e-02 -1.0594401588341648e-01 0.0000000000000000e+00  -6.0101776576103987e-02 -1.1204530362029025e-01 0.0000000000000000e+00  -4.9364546983252176e-02 -1.1720706765512294e-01 0.0000000000000000e+00  -3.8143550686850568e-02 -1.2131840655624307e-01 0.0000000000000000e+00  -2.6655653049782822e-02 -1.2435929354534912e-01 0.0000000000000000e+00  -1.4859943231800548e-02 -1.2630920468424209e-01 0.0000000000000000e+00  -3.0014306457594358e-03 -1.2714421514795102e-01 0.0000000000000000e+00  8.9333311821630425e-03 -1.2683177709962454e-01 0.0000000000000000e+00  2.0775795003014890e-02 -1.2544250854073322e-01 0.0000000000000000e+00  3.2430807381500448e-02 -1.2297754882102174e-01 0.0000000000000000e+00  4.3801963169248719e-02 -1.1936672114437123e-01 0.0000000000000000e+00  5.4791592786653347e-02 -1.1476985648798399e-01 0.0000000000000000e+00  6.5288274873690988e-02 -1.0909518235679166e-01 0.0000000000000000e+00  7.5222774695466316e-02 -1.0250395548957673e-01 0.0000000000000000e+00  8.4494829187815923e-02 -9.5040425500807060e-02 0.0000000000000000e+00  9.3035309470775845e-02 -8.6691756227127936e-02 0.0000000000000000e+00  1.0070952976583922e-01 -7.7597765079871858e-02 0.0000000000000000e+00  1.0752107531637484e-01 -6.7811886019533113e-02 0.0000000000000000e+00  1.1342404711701261e-01 -5.7474100490290572e-02 0.0000000000000000e+00  1.1827510958050454e-01 -4.6574202474664296e-02 0.0000000000000000e+00  1.2212226478293409e-01 -3.5294435037344224e-02 0.0000000000000000e+00  1.2488859300734888e-01 -2.3708212672995044e-02 0.0000000000000000e+00  1.2656234468746802e-01 -1.1907541390955990e-02 0.0000000000000000e+00  1.2715550645811577e-01 -1.9278711904622662e-05 0.0000000000000000e+00  1.2656619936972829e-01 1.1894929031404036e-02 0.0000000000000000e+00  1.2489609606938303e-01 2.3698878036327212e-02 0.0000000000000000e+00  1.2216227315551231e-01 3.5307530341341042e-02 0.0000000000000000e+00  1.1828665921470680e-01 4.6569201784782903e-02 0.0000000000000000e+00  1.1343783876080585e-01 5.7474729710675951e-02 0.0000000000000000e+00  1.0757847567606373e-01 6.7817690881599765e-02 0.0000000000000000e+00  1.0071169616156538e-01 7.7584120794309569e-02 0.0000000000000000e+00  9.3042447677577397e-02 8.6698780885102078e-02 0.0000000000000000e+00  8.4484815599318461e-02 9.5009446769937070e-02 0.0000000000000000e+00  7.5216002996602194e-02 1.0250799893165308e-01 0.0000000000000000e+00  6.5287963843240981e-02 1.0910737252335798e-01 0.0000000000000000e+00  5.4796239701889633e-02 1.1477415911162825e-01 0.0000000000000000e+00  4.3815380234698650e-02 1.1939727908095633e-01 0.0000000000000000e+00  3.2440485626671303e-02 1.2297795033305975e-01 0.0000000000000000e+00  2.0773981243768291e-02 1.2547372926096256e-01 0.0000000000000000e+00  8.9448095782106926e-03 1.2687037041939170e-01 0.0000000000000000e+00  -2.9847004706447904e-03 1.2711088650720825e-01 0.0000000000000000e+00  -1.4882868494453590e-02 1.2628494538625368e-01 0.0000000000000000e+00  -2.6647454236015250e-02 1.2436620252558846e-01 0.0000000000000000e+00  -3.8156666542048419e-02 1.2129281731316006e-01 0.0000000000000000e+00  -4.9359750911629002e-02 1.1721465132622280e-01 0.0000000000000000e+00  -6.0121061153802745e-02 1.1207988686555805e-01 0.0000000000000000e+00  -7.0341110893317099e-02 1.0595461192242417e-01 0.0000000000000000e+00  -7.9972746803935735e-02 9.8884639673156083e-02 0.0000000000000000e+00  -8.8874382020010398e-02 9.0962456328157595e-02 0.0000000000000000e+00  -9.6993483688819965e-02 8.2256035361191748e-02 0.0000000000000000e+00  -1.0427800589311249e-01 7.2791591980737147e-02 0.0000000000000000e+00  -1.1062226828215931e-01 6.2720089681489205e-02 0.0000000000000000e+00  -1.1601792565966487e-01 5.2063600451193605e-02 0.0000000000000000e+00  -1.2033983518313444e-01 4.0971197113212544e-02 0.0000000000000000e+00  -1.2368853991989162e-01 2.9509340276754531e-02 0.0000000000000000e+00  -1.2590114478193146e-01 1.7833679926035847e-02 0.0000000000000000e+00  -2.4486535355844444e-04 1.5940514799515196e-01 0.0000000000000000e+00  1.4085185802830153e-02 -8.4200949572742878e-02 0.0000000000000000e+00  -1.7245084099803080e-02 -8.2331837663159588e-02 0.0000000000000000e+00  4.3206050400609305e-02 -7.0092197430529954e-02 0.0000000000000000e+00  -4.4427801698327440e-02 -6.9948099907992459e-02 0.0000000000000000e+00  4.4170197693861477e-02 -5.1288627228324793e-02 0.0000000000000000e+00  -4.2903059570139311e-02 -5.2673021472216884e-02 0.0000000000000000e+00  6.6307199917373869e-02 -5.9171715936207847e-02 0.0000000000000000e+00  -7.0388054337984271e-02 -5.7872105496125856e-02 0.0000000000000000e+00  9.7105613489251549e-02 -3.4701625028483590e-02 0.0000000000000000e+00  -9.9752856578438590e-02 -3.1263408368392594e-02 0.0000000000000000e+00  1.0581876795574759e-01 1.5446429930255738e-02 0.0000000000000000e+00  -1.0451330517091351e-01 2.2771655895293945e-02 0.0000000000000000e+00  4.4088659376038423e-03 1.0039636154440779e-01 0.0000000000000000e+00  6.5941622047316920e-02 7.8332492987133309e-02 0.0000000000000000e+00  -6.5180511369836200e-02 7.8332136732087540e-02 0.0000000000000000e+00  -4.2858176455813420e-02 7.2355695729051150e-02 0.0000000000000000e+00  4.3407410359017129e-02 7.1455442010145323e-02 0.0000000000000000e+00  6.9526907931734662e-03 1.4956623350062651e-01 0.0000000000000000e+00  -3.1915965801900821e-02 1.0665913664883248e-01 0.0000000000000000e+00  3.0360119698430315e-02 1.0761318592762706e-01 0.0000000000000000e+00  -7.7083865194292195e-03 1.4423247780603221e-01 0.0000000000000000e+00  4.8008938705772129e-02 -9.9615610537274635e-02 0.0000000000000000e+00  -5.2571682661666855e-02 -9.7222640208856986e-02 0.0000000000000000e+00  -3.2213646952374401e-03 -1.0823757504779191e-01 0.0000000000000000e+00  8.5997463421028542e-02 3.4444838787697864e-02 0.0000000000000000e+00  9.9170319360506631e-02 6.5306464301388450e-02 0.0000000000000000e+00  8.4712140364577873e-02 -6.3954709105059571e-02 0.0000000000000000e+00  8.1947466923380063e-02 -4.9496476399781719e-02 0.0000000000000000e+00  -2.7091486825006591e-03 -7.4221312253349644e-02 0.0000000000000000e+00  -7.8413472362082140e-02 -6.1536763397813436e-02 0.0000000000000000e+00  -9.0871372478568677e-02 -4.8533987458255427e-02 0.0000000000000000e+00  -1.5051327429828256e-02 -7.1091429225116215e-02 0.0000000000000000e+00  1.1068805466098598e-01 -2.8097733668972152e-02 0.0000000000000000e+00  1.1853515015727407e-01 1.3600895549891100e-02 0.0000000000000000e+00  -9.2455078836511329e-02 7.1495463652356830e-02 0.0000000000000000e+00  -1.1830348216357821e-01 1.8712127928619222e-02 0.0000000000000000e+00  3.7091418121375903e-02 1.1017903038639536e-01 0.0000000000000000e+00  -2.8455138225631862e-02 1.1268481342084659e-01 0.0000000000000000e+00  -1.1249934378211816e-01 -2.4564863708373890e-02 0.0000000000000000e+00  7.4219515832119392e-03 -5.9054953862883987e-02 0.0000000000000000e+00  2.1597852190596622e-04 -5.1354839592299133e-02 0.0000000000000000e+00  -6.4440357866184126e-03 -6.0137803983832859e-02 0.0000000000000000e+00  1.2613148349968295e-02 -6.0836485596745697e-02 0.0000000000000000e+00  -9.8329056402208046e-03 -6.2282600869924147e-02 0.0000000000000000e+00  -8.2533914161879246e-02 3.7177378834292708e-02 0.0000000000000000e+00  -3.0357129281918357e-02 7.9840369751545862e-02 0.0000000000000000e+00  -9.0000176424953740e-02 -2.3937910014775729e-02 0.0000000000000000e+00  8.2913256207862579e-02 -3.5952050443782552e-02 0.0000000000000000e+00  8.0921518922743102e-02 -8.3966896415935813e-02 0.0000000000000000e+00  6.9372651830627886e-03 3.5844933555700245e-02 0.0000000000000000e+00  5.0994524958120464e-02 -7.0667333443787131e-02 0.0000000000000000e+00  -5.5617561781032172e-02 4.9176658575876671e-02 0.0000000000000000e+00  -1.6524705141722407e-03 2.7459697936257636e-02 0.0000000000000000e+00  3.5231321504560618e-02 7.6587092330333478e-02 0.0000000000000000e+00  -1.0775967520011680e-01 -3.7877394386873806e-02 0.0000000000000000e+00  3.0101833226877581e-02 -1.1358163793028390e-01 0.0000000000000000e+00  -3.4066864237042749e-02 -1.1264726965007617e-01 0.0000000000000000e+00  -5.4519826352716259e-02 -6.8650418851231146e-02 0.0000000000000000e+00  5.6988824734892175e-02 5.1096048899077956e-02 0.0000000000000000e+00  7.9111395733733492e-02 9.1946810770976800e-02 0.0000000000000000e+00  -7.4430073420307497e-02 -9.0483258172957728e-02 0.0000000000000000e+00  2.1580809281627833e-03 1.0076041735169058e-01 0.0000000000000000e+00  -3.9610115756697234e-02 -7.5053714903176930e-02 0.0000000000000000e+00  3.7693619060484164e-02 -7.6953370512063399e-02 0.0000000000000000e+00  9.6417520590974234e-02 -5.6542592364754667e-02 0.0000000000000000e+00  -9.5037892567138071e-02 -5.6562024193425278e-02 0.0000000000000000e+00  -7.1943430153688218e-02 9.8142948556476081e-02 0.0000000000000000e+00  -3.5959695581772571e-03 1.4218875914837015e-01 0.0000000000000000e+00  1.1219648700657854e-01 -3.3206207397929274e-02 0.0000000000000000e+00  -1.5921370974685028e-02 -8.4813595094832134e-02 0.0000000000000000e+00  -1.2279712768934919e-01 7.3745727900940824e-03 0.0000000000000000e+00  1.3809007124337504e-02 -8.5714315825517418e-02 0.0000000000000000e+00  1.2206170397658228e-01 5.1583934365181279e-03 0.0000000000000000e+00  1.1522122992811626e-01 4.4484851096290710e-02 0.0000000000000000e+00  -1.1288964874804548e-01 5.0214583958186745e-02 0.0000000000000000e+00  8.5784389885470491e-02 -6.0012895032814763e-03 0.0000000000000000e+00  4.3345774018131436e-03 1.2131275347515444e-01 0.0000000000000000e+00  6.1708505174071060e-02 5.4741686127773879e-02 0.0000000000000000e+00  -7.7454901763493031e-03 -4.7586462321151664e-02 0.0000000000000000e+00  -5.7180705209037487e-02 5.6825483438655823e-02 0.0000000000000000e+00  1.8919328194884316e-02 -3.8012667056547704e-02 0.0000000000000000e+00  -3.4406215654827349e-02 -6.4708935752259750e-02 0.0000000000000000e+00  -8.5809148130339449e-02 2.0954380909137429e-03 0.0000000000000000e+00  2.4224620658045808e-03 8.1505146119436586e-02 0.0000000000000000e+00  3.7706321070060660e-02 -7.0970393798172549e-02 0.0000000000000000e+00  -5.2492910394222242e-02 1.0552405425380075e-01 0.0000000000000000e+00  5.7861364478303111e-02 1.0724945040548509e-01 0.0000000000000000e+00  6.2991356630381065e-02 -8.9420539712502967e-02 0.0000000000000000e+00  -2.1628163337783106e-02 -2.5960562762396586e-02 0.0000000000000000e+00  4.4707059665545890e-02 -8.1280322713975610e-03 0.0000000000000000e+00  -7.1922638328496366e-02 -5.1814727267843128e-02 0.0000000000000000e+00  -1.0957245148983552e-01 -3.2501687079093004e-02 0.0000000000000000e+00  -3.1000075179606693e-02 1.2730684774926077e-01 0.0000000000000000e+00  -2.1843948311559676e-02 1.4459862442427587e-01 0.0000000000000000e+00  -3.5476462131932784e-02 8.5280603757644208e-02 0.0000000000000000e+00  6.7857469189197397e-02 7.7697895064065964e-02 0.0000000000000000e+00  -5.3325574379539914e-04 1.3433165892677995e-01 0.0000000000000000e+00  2.1820698857605014e-02 1.4349355749775058e-01 0.0000000000000000e+00  3.0855514629867218e-02 1.2616462285780472e-01 0.0000000000000000e+00  -6.7746777426542906e-02 -5.5871303465798751e-02 0.0000000000000000e+00  3.4259052452252331e-02 -7.8148832065007515e-02 0.0000000000000000e+00  -5.2489255643216583e-02 1.0255122845221505e-01 0.0000000000000000e+00  4.9423401186422564e-02 6.8522777846211705e-02 0.0000000000000000e+00  -8.7924766440916329e-05 1.7442690384109349e-01 0.0000000000000000e+00  8.5698179784020043e-02 6.4093603285038256e-02 0.0000000000000000e+00  -3.2512170435944052e-02 -7.7151752259852713e-02 0.0000000000000000e+00  -7.5266551322277941e-02 -7.3163454369562564e-02 0.0000000000000000e+00  1.0327918059394817e-01 -4.9901967978194156e-02 0.0000000000000000e+00  1.0545690588307893e-01 6.7808703185951752e-02 0.0000000000000000e+00  -8.7035585745407790e-02 -5.1121654642099480e-02 0.0000000000000000e+00  -4.3079681518877207e-02 9.2354632011939539e-02 0.0000000000000000e+00  -1.0476866302278161e-01 5.6245600481031964e-02 0.0000000000000000e+00  -6.5354291422687033e-02 5.1991086665046295e-02 0.0000000000000000e+00  1.3050512949756902e-02 -1.0642638625734908e-01 0.0000000000000000e+00  2.2090970081049825e-03 -8.3174935536841715e-02 0.0000000000000000e+00  -4.5085921512875951e-02 -5.9285082586969198e-02 0.0000000000000000e+00  4.9806875152933319e-02 -6.0156005110473448e-02 0.0000000000000000e+00  1.2431832966130574e-01 3.4385980487690754e-04 0.0000000000000000e+00  1.1336249898359460e-01 -3.9853553292118406e-02 0.0000000000000000e+00  -9.4948450501621096e-02 -7.6469974128937787e-02 0.0000000000000000e+00  8.4684104484672354e-02 -4.9317460637292546e-02 0.0000000000000000e+00  2.9399987971664033e-03 -1.2353584277646076e-01 0.0000000000000000e+00  -1.7658375030828528e-02 -1.1998818829328388e-01 0.0000000000000000e+00  -5.4457505330138226e-02 5.9846357167124789e-02 0.0000000000000000e+00  -5.1483095827662133e-02 1.4116506295866157e-02 0.0000000000000000e+00  8.7335359558126074e-02 -4.8427051793153472e-02 0.0000000000000000e+00  1.0482368911089826e-01 -8.7834984290428020e-03 0.0000000000000000e+00  6.2740439202664880e-02 -1.0609108041823302e-01 0.0000000000000000e+00  2.6078642447538609e-02 -4.4205938084455427e-03 0.0000000000000000e+00  2.9255649832727673e-02 9.0180589218950877e-02 0.0000000000000000e+00  -8.8346525305267307e-02 -4.6098640444409478e-02 0.0000000000000000e+00  2.8237271246230915e-02 -9.7192707392413924e-02 0.0000000000000000e+00  -2.0028798443101074e-02 9.7083596749969289e-02 0.0000000000000000e+00  5.9007253906681212e-02 -6.1388873938764459e-02 0.0000000000000000e+00  -6.0229338518764698e-03 -7.7466427533785936e-02 0.0000000000000000e+00  1.2891699280053921e-02 -5.8913983514788798e-02 0.0000000000000000e+00  -8.7389256198853890e-02 -8.6894107964083103e-02 0.0000000000000000e+00  -1.9630454803762243e-02 -1.0292840647208990e-01 0.0000000000000000e+00  6.8737504813041028e-02 -5.0593135684096201e-02 0.0000000000000000e+00  2.9527887815376505e-02 9.5784408262084259e-02 0.0000000000000000e+00  1.8908177248040302e-02 -7.6716388892154541e-02 0.0000000000000000e+00  -4.2424793821761314e-02 -5.2410159197453302e-02 0.0000000000000000e+00  4.1205066807222107e-02 1.0502302196192641e-01 0.0000000000000000e+00  -1.0585918361351841e-01 -1.3712126122491982e-02 0.0000000000000000e+00  -8.9487316659020738e-02 8.8680019782450464e-02 0.0000000000000000e+00  9.2539219441110945e-02 -8.1716703319668474e-02 0.0000000000000000e+00  7.5275008202780422e-02 -9.8645712957565218e-02 0.0000000000000000e+00  4.4749484052125497e-02 -6.2302968690530029e-02 0.0000000000000000e+00  -4.7509030537182417e-02 -1.1480927896742053e-01 0.0000000000000000e+00  -1.1656939717150151e-01 -3.5788746446817635e-02 0.0000000000000000e+00  -9.8866066796999455e-02 -6.6069333462109872e-02 0.0000000000000000e+00  -1.1041597297266414e-01 -4.7194408790624830e-02 0.0000000000000000e+00  3.4308962435813120e-02 -5.3511267443012635e-02 0.0000000000000000e+00  8.1209129227904700e-02 -8.6739529675194132e-02 0.00000000