<?xml version="1.0"?>
<VTKFile type="UnstructuredGrid"  version="0.1"  >
<UnstructuredGrid>
<Piece  NumberOfPoints="1173" NumberOfCells="2198">
<Points>
<DataArray  type="Float64"  NumberOfComponents="3"  format="ascii">-1.012275862241438 0.1595055896758932 0  -1.007356741195173 0.04916586968133689 0  -0.98979574029448 -0.05990288189548405 0  -0.9599698375437647 -0.1663366971229516 0  -0.9180761298015253 -0.2689123747938307 0  -0.8646956507882134 -0.3661539303843003 0  -0.8007203749425745 -0.456445825033646 0  -0.7276201984271002 -0.5385988535582845 0  -0.6479489020925677 -0.6106108386425302 0  -0.5631065885067549 -0.672315073347137 0  -0.4738020174330047 -0.7240455950387465 0  -0.3803690395153813 -0.7664930972770723 0  -0.2834859747573053 -0.7991491599438633 0  -0.1844444967186691 -0.8220850492051424 0  -0.08432129395835633 -0.8350229052670607 0  0.01612342141119237 -0.8381806870007721 0  0.1168990555548657 -0.831468696191497 0  0.2166480842329773 -0.8150423774412161 0  0.314835282677894 -0.7887115603729636 0  0.410212053532942 -0.752583526718564 0  0.5025141081490061 -0.7066892350306072 0  0.5899341695207092 -0.6517080778959891 0  0.6727104311269976 -0.5870438065447008 0  0.7500725822712695 -0.5119688471220698 0  0.8204203416341089 -0.4269174751066418 0  0.8809238273012728 -0.3340577173373894 0  0.9305570887232024 -0.2352131712596537 0  0.9683803954456086 -0.1318282191511367 0  0.9946158595243956 -0.02421530079879249 0  1.008274159571684 0.08584505578288265 0  1.009209839881526 0.196232415699933 0  0.9976402976503314 0.3052665443766366 0  0.9737328824827812 0.4127246003886036 0  0.9376622343430655 0.5170521038730252 0  0.890420473493347 0.6160620790041258 0  0.832050876064284 0.7092048250533559 0  0.7638087532764155 0.7954600601703093 0  0.6861671996596109 0.8739863431473808 0  0.6009536865736189 0.9431383450347517 0  0.5087827605097012 1.002654349864958 0  0.4099151224935363 1.052070125503656 0  0.3069746662238365 1.090365007052077 0  0.2005150216411833 1.117698829164635 0  0.09130170706231135 1.133496048967818 0  -0.01920416817578275 1.1375314294237 0  -0.1289074828767237 1.129519410520703 0  -0.2374516956224058 1.109890162153427 0  -0.3431126680335833 1.078781456253524 0  -0.4445419556191732 1.036688868431812 0  -0.5411200355889622 0.9838123806570915 0  -0.6317868217144068 0.920580758586204 0  -0.7142999182758475 0.8484417124914427 0  -0.788780420043104 0.7674905611507924 0  -0.8538233982213813 0.6788589368819901 0  -0.908602525420569 0.5834561564175064 0  -0.9523378091333876 0.4826160811018531 0  -0.9845136682761814 0.3773474052419075 0  -1.004606076842395 0.2691657217296137 0  -2.357486863783965 0.1015183002532464 0  -2.357492660152773 -0.1015213258760174 0  -2.340038760627154 -0.3038046700126558 0  -2.305255286651658 -0.5038392188465369 0  -2.253414200487359 -0.7001440622311436 0  -2.184878466272631 -0.8912662807701053 0  -2.100177356544561 -1.07579483248111 0  -1.999924146972346 -1.252350917403856 0  -1.884861358546096 -1.419639463985243 0  -1.755848392409984 -1.576415981834433 0  -1.613829537867522 -1.721521114752272 0  -1.459866819754866 -1.853881207241034 0  -1.295093783059407 -1.972516835491527 0  -1.120734018117074 -2.07654588516926 0  -0.9380755974180432 -2.165202497111373 0  -0.7484683711797046 -2.237830098785551 0  -0.5533238135506372 -2.293888324120635 0  -0.354082648284398 -2.332958162009215 0  -0.1522213970519961 -2.354765042789535 0  0.05077046074905645 -2.359128618965702 0  0.2533856052237746 -2.34603166130593 0  0.4541239655473334 -2.315570021847706 0  0.6514986898662163 -2.267954693507708 0  0.8440538565381366 -2.203556762634809 0  1.030356617998303 -2.1228407415047 0  1.209033082022197 -2.026407317780848 0  1.378755672757425 -1.914972084768281 0  1.538273362500016 -1.789357264900286 0  1.68639820174257 -1.650498196226392 0  1.822037770434057 -1.499411567606719 0  1.944190567981916 -1.33722983164001 0  2.051946969556932 -1.165148122429184 0  2.144517764289799 -0.9844423959141253 0  2.221204757865507 -0.7964466233024668 0  2.281444270720692 -0.6025498971149649 0  2.324802032197121 -0.404196143457515 0  2.350942044032285 -0.2028526454793111 0  2.359677452330817 1.400055052990945e-07 0  2.350937742874417 0.2028479327721588 0  2.32480150432636 0.4041963050672723 0  2.28144941038575 0.6025499610976256 0  2.221206450794736 0.7964441551639603 0  2.144518431259426 0.9844393608824928 0  2.051953344139173 1.165150221030251 0  1.944189990836332 1.337231154727324 0  1.822042426427032 1.499414958596018 0  1.686401356291955 1.650498625137977 0  1.538272059737078 1.789359081471807 0  1.378759100487267 1.914970579302805 0  1.209030494348552 2.026403082710538 0  1.030354817244807 2.122842950684797 0  0.8440557278634325 2.203556536483345 0  0.6514994680878976 2.267955265622603 0  0.4541264581600666 2.31557019557215 0  0.2533860997305303 2.346036491638607 0  0.05076917130559355 2.359136192255801 0  -0.1522222504065341 2.354765009877216 0  -0.3540821052507333 2.332958943360728 0  -0.5533232033773797 2.2938889128713 0  -0.7484686286247358 2.237825310662526 0  -0.9380722647112885 2.165199543332539 0  -1.120731182105142 2.076543197310108 0  -1.295093296029536 1.97251746550854 0  -1.459866252507356 1.853882247770519 0  -1.613827436504383 1.721517602666799 0  -1.75584253507407 1.576412497227814 0  -1.884858846762564 1.419636611385476 0  -1.999923436936294 1.252353031849588 0  -2.100179082131976 1.075793861612116 0  -2.184880748732259 0.8912658530854111 0  -2.253408870795179 0.7001439650959622 0  -2.305256248248239 0.5038377484632753 0  -2.340033825295423 0.3038034976786895 0  -0.0005265008821488123 0.1609967214173328 0  0.1033361238866512 -1.601923329349016 0  -0.7040291719462303 -1.453180561269183 0  0.8150854761616145 -1.392521326143495 0  -1.349705767740276 -0.931586509581353 0  1.390164592244136 -0.8738551358572324 0  -1.645029559442626 -0.2923783507759243 0  1.657849522079434 -0.2216723649776672 0  -1.64909250685608 0.4269722876317965 0  1.630797193247296 0.498004797730729 0  1.292051911649166 1.149793388832975 0  -1.339469397631968 1.092504132302381 0  -0.7881202714745784 1.553214770638474 0  0.7340262468210038 1.579592304891791 0  0.1138235190276207 1.747788896462787 0  -0.5065097799020134 0.08450044543954482 0  0.5098899713520583 0.1541310294287073 0  -0.3039043555732893 0.5517045125378891 0  0.244917345996646 -0.2705746827544577 0  0.252400538501789 0.5833605240265366 0  -0.3558063191724198 -1.823956103190531 0  -1.209677040470744 -1.414673956880728 0  -0.3762595377037917 1.833126636056631 0  1.302514305341141 -1.350841161001937 0  0.6046538120943067 -1.806426176102462 0  -0.2417971251454519 -0.3017842587039495 0  -0.8860044444876102 -1.025494187523135 0  -1.763918735589439 -0.8110328882495806 0  1.789471020149632 -0.6529034524740638 0  -0.2009162436383296 -1.275338991784903 0  0.9389325633788895 -0.9593433351909609 0  0.3953779993966955 -1.232387912574107 0  -1.952787569621051 -0.004627780017055174 0  1.907216607879032 0.151624714153029 0  -1.787457287783856 0.8139850115298043 0  1.67566321378525 0.938420388275121 0  1.294561407612133 -0.4603479875475279 0  -1.269441860568349 -0.4994312796145047 0  -1.213353423418444 1.504894706598315 0  1.156969202230631 1.554819834475866 0  -0.0005571658157484858 -1.977050848975393 0  -0.4189621421778528 1.451503461298593 0  0.466117985303705 1.923905094719565 0  -0.7402119729106756 -1.837475618577861 0  1.086628935179477 -1.665551494613969 0  1.427780414859313 0.1251482200988976 0  -0.5299336906324796 -1.122871904916102 0  -1.409208245433466 0.09635191748725375 0  1.291754643426319 0.7321885633573209 0  -1.419893699309558 0.7228777337723379 0  -1.548833700716768 -1.253385970806978 0  1.619758844813153 -1.165230820158194 0  -0.9638651103844549 1.200464617802919 0  0.8976430365711745 1.211836519528595 0  -1.943817825311557 -0.4991801347140039 0  1.979604960270132 -0.3619884497612896 0  0.3704255875813726 1.463986980088611 0  -0.7284782342191261 1.894819498920155 0  -1.678743338758666 1.139986408927632 0  -0.09080994937245762 2.021530510753952 0  -1.991296938933012 0.344565194091865 0  -1.015728668866889 -0.7214913546078896 0  -0.03858521853614293 0.78836937240598 0  1.903837017381878 0.6972348001629257 0  0.5735600742565966 -0.1871674530978647 0  -0.6197615516644633 0.4054951732943251 0  0.5808475083137506 0.4905267473334126 0  -1.125343972588574 0.8489164775287622 0  1.530978531993421 1.368375621944625 0  0.7817621314546529 1.894255700925743 0  -0.9732477436494819 -1.623861462902846 0  0.333743448451377 -2.004211710682997 0  -1.311336682948381 0.4084288537945169 0  0.0463469534068507 1.441386900745655 0  1.297318389811811 0.4124012426929788 0  -1.026900236219151 1.769500328323529 0  1.05103851059213 0.9346410197657677 0  1.040337976238854 -0.660774165961853 0  -1.274735594591131 -0.1899781367919673 0  0.6759019912577821 -1.115374622128907 0  -0.5877583769068581 -0.2241450365885425 0  0.01419314120641589 -0.4995892605414924 0  0.08914275078430153 -1.154907431122035 0  0.4142830034569971 -1.550125432305787 0  1.281219349947351 -0.1533604154643396 0  -0.6632230722987759 1.263404371892693 0  -1.47740479591893 1.362706061460067 0  0.6076907468379257 1.281688957199573 0  1.835855241958744 -0.9523011228695953 0  -1.566610111310015 -0.5807494784132305 0  -0.1565881086301564 1.646521684452156 0  -0.1908293822863251 -1.574310020505334 0  0.1963135505228532 2.022662163260044 0  -0.0192319471808609 0.4553784854877173 0  -1.668287614632289 -0.01483438599997213 0  1.89353742958255 0.4236169068468324 0  -1.24137023994378 -1.68901733081295 0  0.8398056746823706 -1.936463272721608 0  -0.4487024669244589 -1.372893847760803 0  1.200329218973983 -1.083502451790895 0  -0.008508053910719382 -0.1286879334133573 0  -0.2395963625313638 0.01978602325695557 0  -0.2411738705158851 0.290091947133935 0  2.085192237297361 -0.09257648942072658 0  1.573997535569988 -0.480225924319905 0  -0.76026371522289 0.1188733949241357 0  0.7395132364230902 0.2748572264829197 0  0.2228592079133955 0.8431323619
[...]
<PointData  Vectors="f_3123-0"> 
<DataArray  type="Float64"  Name="f_3123-0"  NumberOfComponents="3" format="ascii">-9.1649604962363729e-03 -7.4275360833874274e-02 0.0000000000000000e+00  7.2336640043412859e-03 -8.6124631872537966e-02 0.0000000000000000e+00  2.6288444667120405e-02 -9.5784777021121814e-02 0.0000000000000000e+00  4.7732868786785766e-02 -1.0344140255381662e-01 0.0000000000000000e+00  7.1789714480331362e-02 -1.0915915387155074e-01 0.0000000000000000e+00  9.7332691722180842e-02 -1.1146623739773635e-01 0.0000000000000000e+00  1.2265390602729809e-01 -1.0901485901723608e-01 0.0000000000000000e+00  1.4472062030582064e-01 -1.0006607277661154e-01 0.0000000000000000e+00  1.5452618763149342e-01 -7.9799278092022669e-02 0.0000000000000000e+00  1.5188151732720886e-01 -5.3727402624112880e-02 0.0000000000000000e+00  1.3934536831528585e-01 -2.7176041330541131e-02 0.0000000000000000e+00  1.2019551492445579e-01 -3.8017401607845004e-03 0.0000000000000000e+00  9.6456031894417232e-02 1.5687062172868371e-02 0.0000000000000000e+00  6.7417750279516270e-02 3.0710043204068196e-02 0.0000000000000000e+00  3.3119031695443397e-02 4.0003798814270151e-02 0.0000000000000000e+00  -4.3215090023116434e-03 4.2537408925092682e-02 0.0000000000000000e+00  -3.9572475126942043e-02 3.8324144307475147e-02 0.0000000000000000e+00  -7.2540663994208249e-02 2.7451527430004348e-02 0.0000000000000000e+00  -1.0077229592276435e-01 1.1011443596202644e-02 0.0000000000000000e+00  -1.2451123637608925e-01 -9.6884443871636770e-03 0.0000000000000000e+00  -1.4016048573965662e-01 -3.3076008628605026e-02 0.0000000000000000e+00  -1.5169097291359412e-01 -5.9894755933129679e-02 0.0000000000000000e+00  -1.5317969271811571e-01 -8.5935046486174449e-02 0.0000000000000000e+00  -1.4104113690308936e-01 -1.0477522748759133e-01 0.0000000000000000e+00  -1.1728518969404446e-01 -1.1163769104158082e-01 0.0000000000000000e+00  -9.1322332178707971e-02 -1.1240780164917108e-01 0.0000000000000000e+00  -6.6095417481566512e-02 -1.0988260682261256e-01 0.0000000000000000e+00  -4.3587246129155301e-02 -1.0573762103275730e-01 0.0000000000000000e+00  -2.2251854859683468e-02 -9.6225134551093730e-02 0.0000000000000000e+00  -3.4096279869202687e-03 -8.3696582936917660e-02 0.0000000000000000e+00  1.2503424629511203e-02 -7.1471977967674100e-02 0.0000000000000000e+00  2.5986314067874553e-02 -6.1447280737318061e-02 0.0000000000000000e+00  3.6743027363629603e-02 -4.7739172169810710e-02 0.0000000000000000e+00  4.4381976718002078e-02 -3.2204543919285296e-02 0.0000000000000000e+00  5.0575074175591754e-02 -1.9589472821875908e-02 0.0000000000000000e+00  5.4199038677115355e-02 -5.8391567267611650e-03 0.0000000000000000e+00  5.5262398728974337e-02 7.7558379297534329e-03 0.0000000000000000e+00  5.2202983345266137e-02 2.2038914653567040e-02 0.0000000000000000e+00  4.9504257489990884e-02 3.2638494900519337e-02 0.0000000000000000e+00  4.5463675060017306e-02 4.1937658125150191e-02 0.0000000000000000e+00  3.6094114780628198e-02 5.1564187586826307e-02 0.0000000000000000e+00  2.8967778218114269e-02 5.7788863616681514e-02 0.0000000000000000e+00  2.0652310937868342e-02 6.2531320979321500e-02 0.0000000000000000e+00  9.7626718752351054e-03 6.5538909808678672e-02 0.0000000000000000e+00  -2.3558612514699602e-03 6.6785405840460776e-02 0.0000000000000000e+00  -1.1636662931291342e-02 6.5714642013773195e-02 0.0000000000000000e+00  -2.2696252006143197e-02 6.2437842088991655e-02 0.0000000000000000e+00  -3.2080977813978437e-02 5.6974426438886040e-02 0.0000000000000000e+00  -3.9180319101480322e-02 5.0125001024473710e-02 0.0000000000000000e+00  -4.6021974766965706e-02 4.1033192143534625e-02 0.0000000000000000e+00  -5.3049056053245676e-02 2.8871910065861577e-02 0.0000000000000000e+00  -5.4241092278025080e-02 1.8340955474161088e-02 0.0000000000000000e+00  -5.5277243632423492e-02 5.2891641484126718e-03 0.0000000000000000e+00  -5.3690991776060765e-02 -8.2841685097882443e-03 0.0000000000000000e+00  -4.9797492166934562e-02 -2.2505105395296925e-02 0.0000000000000000e+00  -4.3160735810655541e-02 -3.5911998473196739e-02 0.0000000000000000e+00  -3.4375126157244723e-02 -5.0070081910452709e-02 0.0000000000000000e+00  -2.2899052453088767e-02 -6.3040108614235521e-02 0.0000000000000000e+00  -1.3425571168627201e-01 5.7802647015583056e-03 0.0000000000000000e+00  -1.3429358840375136e-01 -5.8028583560873655e-03 0.0000000000000000e+00  -1.3330056411763758e-01 -1.7307519087980658e-02 0.0000000000000000e+00  -1.3128921471033747e-01 -2.8693025150022217e-02 0.0000000000000000e+00  -1.2836972456930607e-01 -3.9866297447055200e-02 0.0000000000000000e+00  -1.2442590988038953e-01 -5.0754070903641417e-02 0.0000000000000000e+00  -1.1963090498358070e-01 -6.1297316230616898e-02 0.0000000000000000e+00  -1.1393210767553830e-01 -7.1332910312376804e-02 0.0000000000000000e+00  -1.0736750717554341e-01 -8.0875120401854919e-02 0.0000000000000000e+00  -1.0004183373598799e-01 -8.9804423913911649e-02 0.0000000000000000e+00  -9.1934324467844622e-02 -9.8068636933808878e-02 0.0000000000000000e+00  -8.3171769565063780e-02 -1.0561263361702912e-01 0.0000000000000000e+00  -7.3783745110258953e-02 -1.1237865796185047e-01 0.0000000000000000e+00  -6.3861075620972721e-02 -1.1829474445351587e-01 0.0000000000000000e+00  -5.3455282648486736e-02 -1.2334690714509806e-01 0.0000000000000000e+00  -4.2631098868238924e-02 -1.2749424542394663e-01 0.0000000000000000e+00  -3.1518789327053064e-02 -1.3068921999221600e-01 0.0000000000000000e+00  -2.0171589739672362e-02 -1.3288265950336045e-01 0.0000000000000000e+00  -8.6866179812661592e-03 -1.3415368022321722e-01 0.0000000000000000e+00  2.8887003871906443e-03 -1.3436991588927275e-01 0.0000000000000000e+00  1.4435525828053844e-02 -1.3362816000098601e-01 0.0000000000000000e+00  2.5870641025009397e-02 -1.3192665831006034e-01 0.0000000000000000e+00  3.7105847792511013e-02 -1.2918251187988153e-01 0.0000000000000000e+00  4.8091442346297468e-02 -1.2553770773237521e-01 0.0000000000000000e+00  5.8696038446951732e-02 -1.2094062919014854e-01 0.0000000000000000e+00  6.8883802059790111e-02 -1.1544234889814273e-01 0.0000000000000000e+00  7.8544509176174851e-02 -1.0909541331318655e-01 0.0000000000000000e+00  8.7640541410796857e-02 -1.0193051361071921e-01 0.0000000000000000e+00  9.6060602264746928e-02 -9.4035276347118738e-02 0.0000000000000000e+00  1.0377383745724621e-01 -8.5389935788479351e-02 0.0000000000000000e+00  1.1073706429483302e-01 -7.6152661399350660e-02 0.0000000000000000e+00  1.1686645444126098e-01 -6.6352549805898234e-02 0.0000000000000000e+00  1.2217086168036823e-01 -5.6076976953191540e-02 0.0000000000000000e+00  1.2652639026598911e-01 -4.5380205297654783e-02 0.0000000000000000e+00  1.2993105168581603e-01 -3.4314583434380111e-02 0.0000000000000000e+00  1.3243414491303765e-01 -2.3020122460902750e-02 0.0000000000000000e+00  1.3391854474115014e-01 -1.1579965583201436e-02 0.0000000000000000e+00  1.3441819433052221e-01 3.8965413223812585e-07 0.0000000000000000e+00  1.3389055143506859e-01 1.1547125861604945e-02 0.0000000000000000e+00  1.3243000204482749e-01 2.3024652188910970e-02 0.0000000000000000e+00  1.2996505000381084e-01 3.4313024811467148e-02 0.0000000000000000e+00  1.2653751659665052e-01 4.5363403468351327e-02 0.0000000000000000e+00  1.2217471685386011e-01 5.6058005035748398e-02 0.0000000000000000e+00  1.1690850266365309e-01 6.6365204839009553e-02 0.0000000000000000e+00  1.1073384995607873e-01 7.6160056209832308e-02 0.0000000000000000e+00  1.0380333458994373e-01 8.5412891897904200e-02 0.0000000000000000e+00  9.6082833405744403e-02 9.4036384620030763e-02 0.0000000000000000e+00  8.7631791107952259e-02 1.0194229773752557e-01 0.0000000000000000e+00  7.8568062836067556e-02 1.0908490800273979e-01 0.0000000000000000e+00  6.8866544407724439e-02 1.1541496742732435e-01 0.0000000000000000e+00  5.8683989368739364e-02 1.2095520730064609e-01 0.0000000000000000e+00  4.8104689425549421e-02 1.2553613800066249e-01 0.0000000000000000e+00  3.7110551990231125e-02 1.2918664650985529e-01 0.0000000000000000e+00  2.5887447715810738e-02 1.3192804753137008e-01 0.0000000000000000e+00  1.4437467719833260e-02 1.3366024829318868e-01 0.0000000000000000e+00  2.8798082533201567e-03 1.3441985944636151e-01 0.0000000000000000e+00  -8.6898495444681697e-03 1.3415394776288711e-01 0.0000000000000000e+00  -2.0169082852593920e-02 1.3288794908668553e-01 0.0000000000000000e+00  -3.1514213317222824e-02 1.3069344219134685e-01 0.0000000000000000e+00  -4.2632026951850685e-02 1.2746358354632747e-01 0.0000000000000000e+00  -5.3434460774272156e-02 1.2332737006305590e-01 0.0000000000000000e+00  -6.3841088678198071e-02 1.1827809619541003e-01 0.0000000000000000e+00  -7.3780978419471052e-02 1.1238265346465462e-01 0.0000000000000000e+00  -8.3169179125041709e-02 1.0561854494720939e-01 0.0000000000000000e+00  -9.1918333329529464e-02 9.8047949197902898e-02 0.0000000000000000e+00  -1.0000347641282914e-01 8.9781705767136025e-02 0.0000000000000000e+00  -1.0735259613541485e-01 8.0854351203135486e-02 0.0000000000000000e+00  -1.1392709395231505e-01 7.1346680969647913e-02 0.0000000000000000e+00  -1.1964233711174552e-01 6.1289990754539482e-02 0.0000000000000000e+00  -1.2444030985067742e-01 5.0752325221762894e-02 0.0000000000000000e+00  -1.2833487487509534e-01 3.9865288955785366e-02 0.0000000000000000e+00  -1.3129509910465126e-01 2.8685035501072126e-02 0.0000000000000000e+00  -1.3326824313839922e-01 1.7300670556797099e-02 0.0000000000000000e+00  -2.1131797013888955e-03 1.2640267327144392e-01 0.0000000000000000e+00  3.0628876464905527e-03 -7.4416971755405389e-02 0.0000000000000000e+00  -2.5194955051870263e-02 -7.2815093890065408e-02 0.0000000000000000e+00  2.9397644272783758e-02 -7.0535577024577079e-02 0.0000000000000000e+00  -4.1367578509329553e-02 -5.0975362711271732e-02 0.0000000000000000e+00  4.2903502978267297e-02 -4.9799160188990756e-02 0.0000000000000000e+00  -5.4633051813332487e-02 -5.1741265769662398e-02 0.0000000000000000e+00  5.7451883547453120e-02 -5.0416672605875359e-02 0.0000000000000000e+00  -8.7768272729359845e-02 -3.3931300082253812e-02 0.0000000000000000e+00  8.9491299702057617e-02 -3.0015136929367314e-02 0.0000000000000000e+00  9.9833590013744672e-02 2.2206563768509959e-02 0.0000000000000000e+00  -1.0067406612602232e-01 1.7156802898741792e-02 0.0000000000000000e+00  -7.1767286329620844e-02 7.2450941312684050e-02 0.0000000000000000e+00  6.8444007601336607e-02 7.5317338805084302e-02 0.0000000000000000e+00  1.2113179572676963e-02 1.0020817896150538e-01 0.0000000000000000e+00  -2.8125652745953258e-02 5.0594889617627162e-02 0.0000000000000000e+00  2.9823276543842748e-02 5.2065105064100316e-02 0.0000000000000000e+00  -2.9528366554848317e-02 8.3131139995721706e-02 0.0000000000000000e+00  -2.1723783467233696e-02 1.1550701717323059e-01 0.0000000000000000e+00  2.4011513587231206e-02 8.7455951463726617e-02 0.0000000000000000e+00  -2.1219017265202360e-02 -1.0370863508421366e-01 0.0000000000000000e+00  -6.9666160748544245e-02 -7.5889696744798743e-02 0.0000000000000000e+00  -3.4382672485245298e-02 1.0653319176344565e-01 0.0000000000000000e+00  7.4964224856547204e-02 -7.2447916656438127e-02 0.0000000000000000e+00  3.7303346518657687e-02 -1.0439629832887172e-01 0.0000000000000000e+00  2.2725620822395268e-02 1.1332185710458682e-01 0.0000000000000000e+00  1.4680629981735985e-02 -5.7188253779927561e-02 0.0000000000000000e+00  -9.3487963172499008e-02 -5.1622410955437271e-02 0.0000000000000000e+00  9.0547621231491141e-02 -4.6986554974089378e-02 0.0000000000000000e+00  1.2960093311158471e-02 -3.6741786234615985e-02 0.0000000000000000e+00  -1.7341498357699135e-02 -5.6698442693565727e-02 0.0000000000000000e+00  -2.0081660014638684e-02 -4.4014392250707232e-02 0.0000000000000000e+00  -1.0846746527393007e-01 -3.0542443821920957e-02 0.0000000000000000e+00  1.0628387969379056e-01 -2.6756344132298816e-02 0.0000000000000000e+00  -1.1941067518386157e-01 1.1192674051866190e-02 0.0000000000000000e+00  1.1573662346523825e-01 1.6213392312663354e-02 0.0000000000000000e+00  -1.7018845592304176e-02 -6.2166343675318481e-02 0.0000000000000000e+00  2.1160140372447227e-02 -6.3021560063613744e-02 0.0000000000000000e+00  -9.7968290208732545e-02 6.7370085935398311e-02 0.0000000000000000e+00  9.4871582575102739e-02 7.2220621643741170e-02 0.0000000000000000e+00  -2.3015172389844680e-04 -1.1764969104532479e-01 0.0000000000000000e+00  -4.1689711988768918e-02 6.8847777037348845e-02 0.0000000000000000e+00  4.1275743344659527e-02 1.1353510067814868e-01 0.0000000000000000e+00  -4.8275116150968751e-02 -1.0794643982460751e-01 0.0000000000000000e+00  6.9808045020551615e-02 -9.5659993160054566e-02 0.0000000000000000e+00  3.2965899002372644e-02 -6.4549514862454901e-02 0.0000000000000000e+00  3.6055468323397816e-02 -5.0574105705582635e-02 0.0000000000000000e+00  -2.8584926752826711e-02 -6.7344493382883633e-02 0.0000000000000000e+00  7.5996583337633455e-02 -2.7816850735117530e-02 0.0000000000000000e+00  -8.6267524028075943e-02 -2.3195207178334103e-02 0.0000000000000000e+00  -9.2357417969966674e-02 -6.9107389534708644e-02 0.0000000000000000e+00  9.5497491379248900e-02 -6.4579213431108048e-02 0.0000000000000000e+00  -8.0900890748229010e-02 2.7335587951052787e-02 0.0000000000000000e+00  7.7141286756202021e-02 2.9586289751633642e-02 0.0000000000000000e+00  -1.0700223077276880e-01 -4.2635286687596030e-02 0.0000000000000000e+00  1.1005699731326755e-01 -3.7245312960358268e-02 0.0000000000000000e+00  3.7543915751158945e-02 7.0533857745813888e-02 0.0000000000000000e+00  -6.0004513974434986e-02 1.0937940570475815e-01 0.0000000000000000e+00  -1.1883375117518113e-01 4.0096174024004470e-02 0.0000000000000000e+00  -7.1693869932744755e-03 1.2354671335571454e-01 0.0000000000000000e+00  -1.2112936481057490e-01 -1.0502850311009469e-02 0.0000000000000000e+00  5.4493998142576446e-02 -6.1828213855179392e-02 0.0000000000000000e+00  -4.5203869422260371e-03 8.5309497996855166e-02 0.0000000000000000e+00  1.2320180790036836e-01 9.8369110002613450e-03 0.0000000000000000e+00  -1.6877493854642441e-02 1.1736439394715496e-02 0.0000000000000000e+00  -4.3858811353007510e-02 2.9573934383468850e-02 0.0000000000000000e+00  4.3595018931594114e-02 3.7705578892697253e-02 0.0000000000000000e+00  -7.5090857043208850e-02 -1.5139133838310172e-02 0.0000000000000000e+00  1.1208667792803070e-01 5.9636901689335275e-02 0.0000000000000000e+00  6.4049944916183738e-02 1.0856351177819287e-01 0.0000000000000000e+00  -5.9830779257442131e-02 -9.0949515702827818e-02 0.0000000000000000e+00  2.1624648539576949e-02 -1.2046953600651605e-01 0.0000000000000000e+00  -4.8757497118158008e-02 -5.6296517088234362e-02 0.0000000000000000e+00  5.1120343372998301e-03 7.4345805497021938e-02 0.0000000000000000e+00  4.6338020798282760e-02 -5.8284222952602466e-02 0.0000000000000000e+00  -8.1594447082521018e-02 9.6331279994488206e-02 0.0000000000000000e+00  7.5630472697233636e-02 -6.3438282639886523e-03 0.0000000000000000e+00  -5.7602953996870473e-02 -6.5992917719829361e-02 0.0000000000000000e+00  1.8136921005223745e-02 -7.8998273085772869e-02 0.0000000000000000e+00  -2.3217072872283480e-02 -5.7650053766635109e-02 0.0000000000000000e+00  2.4330780270285249e-02 -1.0369440390497725e-03 0.0000000000000000e+00  -4.1025818612321413e-03 1.2022060760036310e-01 0.0000000000000000e+00  -1.0939489793107013e-02 -1.6031465695019446e-02 0.0000000000000000e+00  1.2927172389551777e-02 -7.4369791788009731e-02 0.0000000000000000e+00  -1.3881123627514825e-02 -7.9202068312171678e-02 0.0000000000000000e+00  -6.1497290293138995e-02 4.5347394071295767e-02 0.0000000000000000e+00  -1.1053838152257479e-01 5.7091350442159627e-02 0.0000000000000000e+00  5.8028295243311420e-02 4.7794579755715223e-02 0.0000000000000000e+00  1.0758342022301130e-01 -5.6208514193885034e-02 0.0000000000000000e+00  -4.8031731028950898e-02 -5.0284282351273857e-02 0.0000000000000000e+00  -1.5185217362473656e-02 9.1184973537218383e-02 0.0000000000000000e+00  -4.9042342689970793e-03 -7.2265704969054642e-02 0.0000000000000000e+00  1.7362237108251768e-02 1.2313306597473514e-01 0.0000000000000000e+00  -3.0540227141474499e-03 1.0817648985951393e-01 0.0000000000000000e+00  -6.4541904435255246e-02 -5.0351346417782154e-02 0.0000000000000000e+00  1.1405007305775845e-01 -1.3017165277333457e-02 0.0000000000000000e+00  -8.0647280051968084e-02 -9.7559695236408353e-02 0.0000000000000000e+00  5.5008255297464712e-02 -1.1556619250619397e-01 0.0000000000000000e+00  8.6554437220281175e-04 -5.8417322740930942e-02 0.0000000000000000e+00  3.9188090884840918e-02 -5.5490678011820165e-02 0.0000000000000000e+00  -2.3586772793169715e-03 1.3538573944994139e-01 0.0000000000000000e+00  -1.4623041980902746e-02 1.1273884817413266e-01 0.0000000000000000e+00  -2.3445236098261605e-02 1.0322707623522605e-01 0.0000000000000000e+00  1.2211175726678437e-01 -2.3648039880932187e-02 0.0000000000000000e+00  4.4911564259353678e-02 -5.0203882283233824e-02 0.0000000000000000e+00  -2.2386860500607477e-02 -2.4530227375984322e-02 0.0000000000000000e+00  3.7920234527026933e-02 -8.2711134758490564e-03 0.0000000000000000e+00  2.2616046473428939e-02 7.5762936532427147e-02 0.0000000000000000e+00  -2.9847934379558433e-02 7.2335217629807685e-02 0.0000000000000000e+00  -4.5044782814602946e-02 4.7235936883678289e-02 0.0000000000000000e+00  -1.1750518365888325e-01 -4.8647421807685963e-03 0.0000000000000000e+00  -7.9107076067117477e-02 3.7749285051168251e-02 0.0000000000000000e+00  -3.5852250326949817e-02 -1.2188988380858477e-01 0.0000000000000000e+00  2.1568601554114546e-02 1.0178596272703910e-01 0.0000000000000000e+00  1.0192735126392153e-02 1.1293802524968152e-01 0.0000000000000000e+00  -2.8434569538591078e-02 -8.9076076001124049e-02 0.0000000000000000e+00  -1.6906774485496476e-02 -1.2584593074285139e-01 0.0000000000000000e+00  4.1514137141100499e-02 5.5709906783797912e-02 0.0000000000000000e+00  -9.2685649119301883e-02 -8.5267593275752979e-02 0.0000000000000000e+00  -3.9584563229313051e-02 -6.9354424805166209e-02 0.0000000000000000e+00  -6.1330922972074244e-02 -6.0770377726336651e-02 0.0000000000000000e+00  8.0625604531925604e-02 8.8840895813125140e-02 0.0000000000000000e+00  4.8595002203118715e-02 -9.2811744553001563e-02 0.0000000000000000e+00  -1.0572161795598423e-01 -6.2746498991858884e-02 0.0000000000000000e+00  -2.6276305936394087e-02 1.2638006774722332e-01 0.0000000000000000e+00  7.7755107093253409e-02 -6.2753814481491060e-02 0.0000000000000000e+00  8.6557283033453752e-02 -9.2506477745569721e-02 0.0000000000000000e+00  -1.1968361396398337e-01 -3.1140592374082999e-02 0.0000000000000000e+00  2.6565945489026348e-02 -6.1154551419122967e-02 0.0000000000000000e+00  6.8526660899532327e-03 -3.2310877422511021e-02 0.0000000000000000e+00  -5.4162208320740070e-02 9.0494340230384510e-02 0.0000000000000000e+00  1.1909538088842027e-01 -4.3071716212581726e-02 0.0000000000000000e+00  9.9130971829363479e-02 -8.0284309510436025e-02 0.0000000000000000e+00  7.6319151068590524e-02 7.9781744931568171e-02 0.0000000000000000e+00  1.2885856754783193e-01 -3.1623591238759976e-03 0.0000000000000000e+00  -1.0716195737821331e-01 7.4982226825527597e-03 0.0000000000000000e+00  -5.7423972009356644e-02 -4.1018424710359581e-02 0.0000000000000000e+00  1.1948933192642318e-01 4.9425556259532238e-02 0.0000000000000000e+00  -9.4588020534746936e-02 -3.4475862251248150e-02 0.0000000000000000e+00  -6.4768847062290399e-02 -1.1063792527952368e-01 0.0000000000000000e+00  -6.5812280317364330e-02 -4.0650319328103653e-02 0.0000000000000000e+00  1.2562475590372998e-01 3.3950330517170391e-02 0.0000000000000000e+00  -4.2807000694376034e-03 -4.7265866119949977e-02 0.0000000000000000e+00  7.6670071706545065e-02 -4.2347130413567240e-02 0.0000000000000000e+00  -7.7325972995229975e-02 -6.6802533440089198e-02 0.0000000000000000e+00  8.6508040142439208e-02 9.8684301575327954e-02 0.0000000000000000e+00  7.3495112028251680e-02 4.1289507497968489e-02 0.0000000000000000e+00  -4.2087916773022238e-03 -5.1994573020997234e-02 0.0000000000000000e+00  -1.6282203465853976e-03 -6.0001568105572889e-02 0.00