<?xml version="1.0"?>
<VTKFile type="UnstructuredGrid"  version="0.1"  >
<UnstructuredGrid>
<Piece  NumberOfPoints="737" NumberOfCells="1356">
<Points>
<DataArray  type="Float64"  NumberOfComponents="3"  format="ascii">-0.9357060591460928 -0.03613144323545751 0  -0.9347395368093309 -0.1391295938108016 0  -0.9223711712742432 -0.2411980897205963 0  -0.898764288574741 -0.3407989097107011 0  -0.8648171089540778 -0.4369062221309163 0  -0.821290380961941 -0.5267387694342831 0  -0.7698289648605413 -0.609335995374036 0  -0.7102519872969398 -0.686207522398988 0  -0.6437584596676459 -0.7557102379312974 0  -0.5717239497965981 -0.817356750865703 0  -0.4939098666688987 -0.871222167378779 0  -0.4116338091826824 -0.9167089950252889 0  -0.3246351944328897 -0.953882857401704 0  -0.2337914547576071 -0.9822153206724915 0  -0.1423680445922903 -1.000967829444365 0  -0.04920586759196111 -1.010502297755423 0  0.04554354259823578 -1.010714646318845 0  0.1390998041737316 -1.001475683982886 0  0.2305865513506082 -0.983182259501721 0  0.3205994291420044 -0.9555526923599685 0  0.4076369776092456 -0.9190189946010859 0  0.4897284867151578 -0.8741388561492475 0  0.5684864819951717 -0.8202742637313651 0  0.6415555292796342 -0.7585297643641329 0  0.708222718717071 -0.689351383852138 0  0.7672906380623576 -0.6140070912907699 0  0.8195368685569051 -0.5309062160527662 0  0.8633658117035633 -0.4410384113947965 0  0.8977361797745078 -0.3456199972103103 0  0.9216417025569844 -0.2465619101577513 0  0.9345976459304473 -0.1445069886406159 0  0.9361254496316247 -0.04096958486129645 0  0.9259961216185272 0.0624519031872585 0  0.9043100411570203 0.1647418594212028 0  0.8712634466410756 0.2638057721344184 0  0.8268054634944112 0.3591534405617768 0  0.7720851485297542 0.4489392156533685 0  0.7071843919489331 0.532496503807689 0  0.633337518125195 0.608159189620668 0  0.5512443110359313 0.6751106101718263 0  0.462175465664788 0.7321724497620578 0  0.3659129028646106 0.7794990575009203 0  0.2654781616340829 0.8153510554847108 0  0.1618778580339296 0.8395847996818423 0  0.05551615382703329 0.8519351751220687 0  -0.05094821132529279 0.8522050285951471 0  -0.1565239281456627 0.8404457988465595 0  -0.2611253132020953 0.8165281167563814 0  -0.3615806731120301 0.7811665697852423 0  -0.4565215841979369 0.7351639352814788 0  -0.5465115118424814 0.6781872477258925 0  -0.6297644810908111 0.6110524840338006 0  -0.7038046625246298 0.5359389010975085 0  -0.7687985947516361 0.4533989416062054 0  -0.8246031328087527 0.3631370160659889 0  -0.8694636069991002 0.2677575607200964 0  -0.9028609005927986 0.1694280804137708 0  -0.925053915155472 0.06755025658343745 0  1.891194789537644 -2.681076050352479e-06 0  1.880113570901703 0.2044720397779311 0  1.846981009904142 0.4065504654881872 0  1.79218917881397 0.60385609641355 0  1.716397620370209 0.7940871788493231 0  1.620488175502136 0.975010769168725 0  1.505571629835837 1.144507947056179 0  1.373002579824624 1.30057289418504 0  1.224337982672738 1.441403908344713 0  1.061316231308513 1.565324055413951 0  0.8858541970144725 1.670899616043895 0  0.7000101427437292 1.756877793879354 0  0.5059474647675225 1.82225428845124 0  0.3059595363082095 1.866287961501675 0  0.1023824463103542 1.888425537300711 0  -0.1023866683110721 1.888425660737738 0  -0.3059652557932593 1.866285286106734 0  -0.5059467244788571 1.822266650559846 0  -0.7000016823143963 1.756872461272315 0  -0.8858519422383118 1.67089838234921 0  -1.061312610486883 1.565315787120376 0  -1.224337817963371 1.441399485135901 0  -1.373002870390757 1.300574981030481 0  -1.505567528726926 1.144506392855221 0  -1.620489842512185 0.9750088724001579 0  -1.716404001746159 0.7940924764377767 0  -1.792198562117283 0.6038667945116558 0  -1.846969606901331 0.4065466028406036 0  -1.880110989586268 0.2044696129489984 0  -1.891196232446151 1.924690563231405e-06 0  -1.880109060648328 -0.2044777717542602 0  -1.846979646914045 -0.4065524879732998 0  -1.792187235410876 -0.6038608026291573 0  -1.716400357942858 -0.7940980378213328 0  -1.62047582804304 -0.9750097604065345 0  -1.50555985691718 -1.144497963539701 0  -1.372990799028412 -1.30056851330968 0  -1.224325699399071 -1.441391796957684 0  -1.061307772785401 -1.565314820457708 0  -0.8858489438009873 -1.670896287734451 0  -0.7000003819628495 -1.756868811220057 0  -0.5059507758881334 -1.822260648881359 0  -0.3059588732323869 -1.866271079153452 0  -0.1023867545368973 -1.888410794697986 0  0.1023914665982164 -1.888420746398714 0  0.3059544421242711 -1.866283097729134 0  0.5059484677224542 -1.822260263717065 0  0.70000238042945 -1.75687563168779 0  0.885852523850067 -1.670894196844382 0  1.061308069185744 -1.565317080630801 0  1.224333365460585 -1.441399753919197 0  1.372992204650006 -1.300570074192087 0  1.505570061290395 -1.144500313950529 0  1.62047640434318 -0.9750088643257147 0  1.716401078093038 -0.7940968937106896 0  1.792188484625937 -0.6038593529360042 0  1.846980679347723 -0.4065556958786917 0  1.880101152071467 -0.2044734599496316 0  8.772153674453887e-05 -0.04472935390490292 0  1.072303085078084e-05 1.371475727664395 0  -0.6214824950061738 1.22415005332695 0  0.5847926191148956 1.247041905742151 0  1.014222115500289 0.9383047994060573 0  -1.06794775023764 0.88843392850859 0  1.30856341703189 0.5018337082366813 0  -1.338021607540318 0.4078866305645283 0  1.412856391961145 -0.05617146983582453 0  -1.416901456234834 -0.09770442544276693 0  0.0008424561138258512 -0.5162586044403498 0  0.002699200895726719 0.4083784387116212 0  -0.4702085516505402 0.0007120244110202373 0  0.4270308019133388 0.145218639710881 0  1.335006522354232 -0.509244186464001 0  -1.326016674596938 -0.5496041310844153 0  1.093886369751389 -0.9518102966073058 0  -1.094159203232484 -0.951740276932063 0  0.7411907265820763 -1.257782442705093 0  -0.741405177777087 -1.257292438591007 0  -0.1555393697300936 -1.45542682095256 0  0.2831628006092287 -1.43245899184349 0  0.3998981526319398 -0.3098786781784666 0  -0.385529405129624 -0.4036333575351065 0  -0.3541680485572362 1.487739362505818 0  -0.2795078422818429 1.15146661801384 0  0.3349211660019192 1.510594027086146 0  -0.3794498645837288 0.3577571441296016 0  -0.9641717271745792 1.223412371128115 0  -0.4189715016571315 -1.281364249884328 0  0.9669691852215203 1.260972006470656 0  -1.370441158328032 0.7508049802924995 0  1.562713237205674 0.2431028597238663 0  1.3248999417187 0.839078695357891 0  0.3341719008755726 0.4509423856867358 0  0.2815746253248372 1.131589632909327 0  -1.587326938928367 0.2480541217579098 0  0.2914118606731412 -0.6059492898911364 0  0.6345352038445903 -0.1349893398319485 0  -0.2120440265965922 0.1405113495748824 0  -0.7490367174019357 0.9201918930165451 0  0.7007303777443555 0.9460943082018699 0  1.567986762474879 -0.3050927201571108 0  -1.067609987264689 0.5619862747568632 0  1.219418387704343 0.185526624426493 0  1.369340901842738 -0.8050610381317049 0  1.03062025374945 0.5616577796154518 0  -0.6101095089503655 -1.495944231681588 0  -1.615251930608649 -0.2756658749553756 0  -0.6209916533560006 -0.259160980212741 0  -0.2593865543654513 -0.6579901958587505 0  -0.6253300984563499 1.498836947323684 0  -1.219041205148467 0.1186025981130122 0  0.001881930137627745 1.104995110797435 0  -0.1145320501688735 1.61976666099911 0  -1.367840643649799 -0.8311732536303215 0  -0.1401638876487099 -0.2801832668266552 0  0.7678594086931076 1.437767048816737 0  0.5203175900914728 -1.560104471531162 0  -0.4945376154049234 0.9961534921848417 0  -1.177730590418757 -0.3292485727090735 0  -1.129849124176571 -1.204612503615341 0  1.033265092492305 -1.227112375565907 0  -0.8077961495270647 -0.993852634274952 0  -1.043051521588676 -0.6904544188363838 0  -1.197030997513645 1.116138604369264 0  1.186412672293782 1.13032553877252 0  1.205730896125473 -0.2677269010230428 0  1.080947564788778 -0.6711200660158443 0  0.8053733809421522 -0.9948801789235587 0  -0.1534999752010961 0.5997130716415311 0  -0.6156267553136772 0.2091061046194622 0  -0.3531535265360507 -1.61962915753738 0  -4.208225472260374e-05 -1.657545151928833 0  0.4933081124935163 -1.303164706843494 0  0.8546939637497161 0.7422567974387929 0  1.503170794135297 0.6668785045913797 0  -1.571339843897887 0.496543241965869 0  0.1471507401643572 0.180203621666185 0  0.6745712643241846 0.1024904797431387 0  0.5639613649383531 0.3351546093357265 0  0.09676601549558136 0.6201516497691413 0  0.1023919144922372 -0.7448179157880298 0  1.543289644892241 -0.6332649712125323 0  0.1337138470196984 -0.2794485225993215 0  0.2833104931448338 -0.06620273284919852 0  -1.655606350771853 -0.03946808265456905 0  1.651577520673657 0.01962732667036576 0  -0.7051186610447905 -0.04571933622891541 0  -0.8931852105203542 0.724621033601867 0  0.5605108761054463 -0.492603932646676 0  0.05525629494967024 -1.292884127196005 0  -1.096495616053832 0.3191090273664128 0  -1.554134023253509 -0.6282384978850409 0  0.1298724588468562 1.647498418672452 0  1.182911341613889 -0.04470185075752045 0  0.5687473432175331 -1.094428777820548 0  0.4921961313140182 1.040206243380874 0  -0.8541876584721564 1.43700474921879 0  -0.5545046468730543 -1.109305901443298 0  -0.257868913929649 -0.08421393910530377 0  -1.187500682047206 -0.1076453067946926 0  -1.299081790483985 -1.056122579906969 0  1.236572705135546 -1.126600254321456 0  0.5658449679241591 1.565185718937702 0  -0.8659084029888275 -1.45053068543239 0  0.7406348011013104 -1.489409472226121 0  -0.5887949703681492 -0.4769672103463472 0  0.9053567410560683 -0.8087842408012139 0  -0.2036045365988465 -1.229104032647657 0  0.3254985609803057 -1.651464578948078 0  0.2447425681899891 -1.209839620590469 0  1.088632736416564 -0.4600952742548415 0  -1.398333857388241 -0.3079855890385647 0  1.51254640880518 0.4505126408118038 0  1.071476308137568 0.3406283472400082 0  -1.365718832519268 0.9755007829408846 0  0.7809629574045577 1.150443696339852 0  -0.3979791743085015 0.5504376423028785 0  -0.4547603968562707 -0.6285659348174299 0  -0.4315895960257391 -0.1903994145369733 0  -0.0789
[...]
<PointData  Vectors="f_581-0"> 
<DataArray  type="Float64"  Name="f_581-0"  NumberOfComponents="3" format="ascii">-3.7342954485800675e-02 -1.2632275219654981e-01 0.0000000000000000e+00  -1.6565669563448755e-02 -1.3633089846996696e-01 0.0000000000000000e+00  6.3856983066333623e-03 -1.4325630513656740e-01 0.0000000000000000e+00  3.0726230907482381e-02 -1.4575267548734835e-01 0.0000000000000000e+00  5.5322855725860751e-02 -1.4368252987549104e-01 0.0000000000000000e+00  7.6141229739375399e-02 -1.3240278773316860e-01 0.0000000000000000e+00  8.9982471950220411e-02 -1.1243855246640945e-01 0.0000000000000000e+00  9.9640068941982282e-02 -9.0449091521760033e-02 0.0000000000000000e+00  1.0321575366309427e-01 -6.5993404010369683e-02 0.0000000000000000e+00  9.9641696619062373e-02 -4.0472640280742926e-02 0.0000000000000000e+00  9.2209176002837415e-02 -1.7265409053367473e-02 0.0000000000000000e+00  8.0028015111344206e-02 3.2375182101093839e-03 0.0000000000000000e+00  6.6259487940624584e-02 1.9762319783421207e-02 0.0000000000000000e+00  5.1126980136689225e-02 3.2519227434398119e-02 0.0000000000000000e+00  3.0725790592342987e-02 4.1794326390057430e-02 0.0000000000000000e+00  1.0046719208816142e-02 4.6396979730757293e-02 0.0000000000000000e+00  -8.9500763255583350e-03 4.6584302475391630e-02 0.0000000000000000e+00  -2.9159565066344900e-02 4.2024425496767062e-02 0.0000000000000000e+00  -4.9821330069320158e-02 3.2685326241509660e-02 0.0000000000000000e+00  -6.7082220870143122e-02 1.9565040740139848e-02 0.0000000000000000e+00  -8.1628305031625534e-02 2.3794217054997555e-03 0.0000000000000000e+00  -9.4548288173651143e-02 -1.8896920549535783e-02 0.0000000000000000e+00  -1.0076052597355165e-01 -4.1573625407290940e-02 0.0000000000000000e+00  -1.0231169404006028e-01 -6.5898181143357021e-02 0.0000000000000000e+00  -9.9482119867131694e-02 -9.0552709022895181e-02 0.0000000000000000e+00  -9.2606290554899218e-02 -1.1570188362336428e-01 0.0000000000000000e+00  -7.7232876742791667e-02 -1.3408816387022210e-01 0.0000000000000000e+00  -5.5973485361689800e-02 -1.4476760764809818e-01 0.0000000000000000e+00  -3.1739293991599110e-02 -1.4774265831332634e-01 0.0000000000000000e+00  -7.4942989409879065e-03 -1.4592017736402804e-01 0.0000000000000000e+00  1.5856264055661158e-02 -1.3868781484454487e-01 0.0000000000000000e+00  3.7243605914223855e-02 -1.2815787919813929e-01 0.0000000000000000e+00  5.5623505490300255e-02 -1.1482927120762523e-01 0.0000000000000000e+00  7.0686340264926623e-02 -9.8017312457588393e-02 0.0000000000000000e+00  8.2528142472050356e-02 -8.0245935215572592e-02 0.0000000000000000e+00  9.0268627355565761e-02 -6.0594215694620063e-02 0.0000000000000000e+00  9.4347879511352595e-02 -4.0943179528353878e-02 0.0000000000000000e+00  9.4285864940977543e-02 -2.0875881376866960e-02 0.0000000000000000e+00  9.0834217726610086e-02 -1.9091167614723064e-03 0.0000000000000000e+00  8.3420280872858590e-02 1.5984365258919213e-02 0.0000000000000000e+00  7.4242143466345681e-02 3.0959347929981205e-02 0.0000000000000000e+00  5.9814072632228737e-02 4.5022470898799405e-02 0.0000000000000000e+00  4.4523495337550539e-02 5.5356610747612479e-02 0.0000000000000000e+00  2.8308453679548855e-02 6.2302317990514770e-02 0.0000000000000000e+00  9.6160807108175237e-03 6.6090600475493130e-02 0.0000000000000000e+00  -8.2174458791864566e-03 6.6243933591228904e-02 0.0000000000000000e+00  -2.5268825631826614e-02 6.2978049859298571e-02 0.0000000000000000e+00  -4.3368685115266564e-02 5.5962622212676422e-02 0.0000000000000000e+00  -5.8868272416503151e-02 4.5879184122979068e-02 0.0000000000000000e+00  -7.0680114037262071e-02 3.3794316056698949e-02 0.0000000000000000e+00  -8.1599732183163451e-02 1.8317680529287828e-02 0.0000000000000000e+00  -9.0051510253846778e-02 2.2021566091427598e-04 0.0000000000000000e+00  -9.3657200095970700e-02 -1.8230977474489315e-02 0.0000000000000000e+00  -9.2899124640886135e-02 -3.7795016863888489e-02 0.0000000000000000e+00  -8.9186804403693268e-02 -5.8714018743545905e-02 0.0000000000000000e+00  -8.1923665151236960e-02 -7.8445740671510833e-02 0.0000000000000000e+00  -7.0335645973376076e-02 -9.5183826557908635e-02 0.0000000000000000e+00  -5.5553845548147990e-02 -1.1162835859204333e-01 0.0000000000000000e+00  1.0487127232595500e-01 -7.0662174021684092e-06 0.0000000000000000e+00  1.0427379102776534e-01 1.1329396010250226e-02 0.0000000000000000e+00  1.0242557827522251e-01 2.2538335077778374e-02 0.0000000000000000e+00  9.9358493364618411e-02 3.3468301008858101e-02 0.0000000000000000e+00  9.5166100881550822e-02 4.4019497636181432e-02 0.0000000000000000e+00  8.9875742113280352e-02 5.4061624257725135e-02 0.0000000000000000e+00  8.3504984102671334e-02 6.3484409305899478e-02 0.0000000000000000e+00  7.6151355202437959e-02 7.2118122487071987e-02 0.0000000000000000e+00  6.7909637975878706e-02 7.9953600119542015e-02 0.0000000000000000e+00  5.8862380441504998e-02 8.6812456663706156e-02 0.0000000000000000e+00  4.9133630776026234e-02 9.2678426289982352e-02 0.0000000000000000e+00  3.8844482928133146e-02 9.7431428755700558e-02 0.0000000000000000e+00  2.8054680981381475e-02 1.0103196511208914e-01 0.0000000000000000e+00  1.6958936199207419e-02 1.0351675454767474e-01 0.0000000000000000e+00  5.6613845018043500e-03 1.0473594787890841e-01 0.0000000000000000e+00  -5.6758470203189665e-03 1.0473628983757473e-01 0.0000000000000000e+00  -1.6980610292401121e-02 1.0350723554090110e-01 0.0000000000000000e+00  -2.8049862063884601e-02 1.0107278673909939e-01 0.0000000000000000e+00  -3.8813676638062455e-02 9.7415188140691195e-02 0.0000000000000000e+00  -4.9125954500527071e-02 9.2674619229898988e-02 0.0000000000000000e+00  -5.8849638043542825e-02 8.6786683504770937e-02 0.0000000000000000e+00  -6.7911852132271425e-02 7.9937072542705143e-02 0.0000000000000000e+00  -7.6152510047868729e-02 7.2124959743278011e-02 0.0000000000000000e+00  -8.3489823416073708e-02 6.3481264951488633e-02 0.0000000000000000e+00  -8.9883889285778978e-02 5.4051586474034838e-02 0.0000000000000000e+00  -9.5187726129852365e-02 4.4034128780404330e-02 0.0000000000000000e+00  -9.9387916213359545e-02 3.3504322326947417e-02 0.0000000000000000e+00  -1.0238724589514293e-01 2.2530078940130711e-02 0.0000000000000000e+00  -1.0426557875528668e-01 1.1318744799176612e-02 0.0000000000000000e+00  -1.0487532281756498e-01 6.9853875076971299e-06 0.0000000000000000e+00  -1.0425756204123911e-01 -1.1353780974946989e-02 0.0000000000000000e+00  -1.0241875707525096e-01 -2.2547852873010782e-02 0.0000000000000000e+00  -9.9350481143099453e-02 -3.3482577806551374e-02 0.0000000000000000e+00  -9.5173328177136390e-02 -4.4054748367843288e-02 0.0000000000000000e+00  -8.9835770111646382e-02 -5.4054794260458713e-02 0.0000000000000000e+00  -8.3464487443511967e-02 -6.3452415384644398e-02 0.0000000000000000e+00  -7.6112058983741127e-02 -7.2103668311987903e-02 0.0000000000000000e+00  -6.7870201774635999e-02 -7.9913008388299650e-02 0.0000000000000000e+00  -5.8832750168807700e-02 -8.6783654089933882e-02 0.0000000000000000e+00  -4.9115666645891030e-02 -9.2667917091648330e-02 0.0000000000000000e+00  -3.8808298127320992e-02 -9.7403472662509621e-02 0.0000000000000000e+00  -2.8065756312403673e-02 -1.0105232189855026e-01 0.0000000000000000e+00  -1.6961504528160191e-02 -1.0346062243395361e-01 0.0000000000000000e+00  -5.6740182831447449e-03 -1.0468791050452103e-01 0.0000000000000000e+00  5.6945535823741018e-03 -1.0471986212058819e-01 0.0000000000000000e+00  1.6941587618055441e-02 -1.0350050653716232e-01 0.0000000000000000e+00  2.8059641702419699e-02 -1.0105026927735528e-01 0.0000000000000000e+00  3.8812997326592581e-02 -9.7426099242663683e-02 0.0000000000000000e+00  4.9126580996893501e-02 -9.2661148782395425e-02 0.0000000000000000e+00  5.8835940899066422e-02 -8.6789470892461501e-02 0.0000000000000000e+00  6.7892793777050806e-02 -7.9940974136083948e-02 0.0000000000000000e+00  7.6116722005994647e-02 -7.2108766180938616e-02 0.0000000000000000e+00  8.3498306820000825e-02 -6.3458875101455772e-02 0.0000000000000000e+00  8.9835941693351531e-02 -5.4053778747522055e-02 0.0000000000000000e+00  9.5175965028671233e-02 -4.4049657338432635e-02 0.0000000000000000e+00  9.9353791005263842e-02 -3.3479039638881623e-02 0.0000000000000000e+00  1.0242216023177005e-01 -2.2559873566358690e-02 0.0000000000000000e+00  1.0423169989066561e-01 -1.1338091463334482e-02 0.0000000000000000e+00  2.3514830835893961e-04 1.7542020980127099e-01 0.0000000000000000e+00  3.0219174873448184e-05 7.6304220239724621e-02 0.0000000000000000e+00  -6.0140729860450305e-02 5.4772019658032967e-02 0.0000000000000000e+00  5.6773494348430063e-02 5.9199224825686132e-02 0.0000000000000000e+00  8.9060466552094097e-02 1.6040053203997817e-02 0.0000000000000000e+00  -9.2197844953738020e-02 9.5945943938148103e-03 0.0000000000000000e+00  9.3795102097368466e-02 -3.4149216551424846e-02 0.0000000000000000e+00  -9.0820348729027306e-02 -4.4976165291032551e-02 0.0000000000000000e+00  6.7314920841427150e-02 -7.7345266440709465e-02 0.0000000000000000e+00  -6.4209103430410822e-02 -7.8367274715121879e-02 0.0000000000000000e+00  -1.3511657446127652e-04 1.6429442899339555e-01 0.0000000000000000e+00  6.9279890775789175e-04 1.2752409851932059e-01 0.0000000000000000e+00  -4.4805809955382213e-02 7.9980353663267223e-02 0.0000000000000000e+00  5.4260105319424379e-02 8.7256888307574887e-02 0.0000000000000000e+00  3.7497726041368931e-02 -8.8884350381849872e-02 0.0000000000000000e+00  -3.7447085716518953e-02 -8.8349909346963018e-02 0.0000000000000000e+00  1.8348273406110935e-02 -9.0687242087637274e-02 0.0000000000000000e+00  -1.9381546153148368e-02 -9.1038640644632310e-02 0.0000000000000000e+00  -2.0294053648060636e-03 -8.4160724172526236e-02 0.0000000000000000e+00  1.2510721015484272e-03 -8.2669137117899943e-02 0.0000000000000000e+00  2.0951220219986477e-03 -6.5346937019195944e-02 0.0000000000000000e+00  -5.5131153001816641e-03 -6.7277755340718698e-02 0.0000000000000000e+00  -8.7247054008763865e-04 1.0677592494587765e-01 0.0000000000000000e+00  1.7227586389498933e-02 1.0577374706076317e-01 0.0000000000000000e+00  -3.1390746389717443e-02 8.5623940376588964e-02 0.0000000000000000e+00  -3.2564637618995987e-02 5.6197079789178275e-02 0.0000000000000000e+00  2.8596764967764435e-02 8.7541310784632481e-02 0.0000000000000000e+00  -5.8397608597146981e-02 8.4589049928013610e-02 0.0000000000000000e+00  -7.9247245894848245e-02 5.5520000130702969e-02 0.0000000000000000e+00  2.0890890971611696e-02 -5.4845719491094624e-02 0.0000000000000000e+00  7.7695897152578464e-02 6.0228965421239733e-02 0.0000000000000000e+00  -1.0120131443969728e-01 7.0074116685742271e-03 0.0000000000000000e+00  9.7595274138311386e-02 -3.2380093476493670e-02 0.0000000000000000e+00  9.9207528733592301e-02 1.6417265226417996e-02 0.0000000000000000e+00  5.5415797352578261e-02 8.3193739379187906e-02 0.0000000000000000e+00  3.3527394645186864e-02 5.3014332857607788e-02 0.0000000000000000e+00  -9.9179029143344477e-02 -2.8776822625241956e-02 0.0000000000000000e+00  -4.2182235121118530e-02 1.0902850120758262e-01 0.0000000000000000e+00  3.2549427619041935e-02 1.5022196322225943e-03 0.0000000000000000e+00  -2.8060134840486903e-02 1.4224274713231266e-01 0.0000000000000000e+00  -7.9886050707572404e-02 1.5943142713208049e-02 0.0000000000000000e+00  7.5655894632550985e-02 1.8901178172996431e-02 0.0000000000000000e+00  8.0171544352411292e-02 -6.0335001941515545e-02 0.0000000000000000e+00  -9.1045278532290858e-02 -4.3113573758603731e-02 0.0000000000000000e+00  6.8204716936710444e-02 -8.7365879758552201e-02 0.0000000000000000e+00  5.7950678208601336e-02 -7.7610446652046708e-02 0.0000000000000000e+00  8.9445513053083625e-02 -4.3337666733768279e-02 0.0000000000000000e+00  -1.5301442377745653e-02 -9.2224963704945567e-02 0.0000000000000000e+00  -8.6651796531478656e-02 -5.2461980755346894e-02 0.0000000000000000e+00  -3.8868941650738648e-03 1.9467521346368697e-03 0.0000000000000000e+00  4.3683738665379772e-02 1.0928105141366484e-01 0.0000000000000000e+00  -5.0177592556205373e-02 8.4691670364140020e-02 0.0000000000000000e+00  -6.1096216476039612e-02 -9.5624020697838236e-02 0.0000000000000000e+00  -7.0457297177631858e-04 5.6865705705040494e-02 0.0000000000000000e+00  -9.3031086862153910e-03 9.7030018017478750e-02 0.0000000000000000e+00  -5.9372121633995315e-02 -7.7105729331365988e-02 0.0000000000000000e+00  -2.1042428418796620e-03 1.7278752062339980e-01 0.0000000000000000e+00  6.0563781454826320e-02 7.8794056264394244e-02 0.0000000000000000e+00  1.4133370234757994e-02 -9.3673916383401154e-02 0.0000000000000000e+00  -5.9005835732270161e-02 3.4069457708755649e-02 0.0000000000000000e+00  -7.0856442242955685e-03 -1.2119741645428905e-01 0.0000000000000000e+00  -4.7861366621642178e-02 -8.7997046347738958e-02 0.0000000000000000e+00  3.6182776534603507e-02 -9.0578750665291960e-02 0.0000000000000000e+00  3.6171238580279035e-02 -8.5397267869070773e-02 0.0000000000000000e+00  2.5450384958046576e-02 -1.0887972180802620e-01 0.0000000000000000e+00  -8.9906029211387739e-02 4.7452266124090897e-02 0.0000000000000000e+00  8.8973488535347978e-02 4.8836317332364591e-02 0.0000000000000000e+00  1.7507850020649227e-02 -1.1794892611917139e-01 0.0000000000000000e+00  -1.5534179117603953e-02 -1.0878306209791681e-01 0.0000000000000000e+00  -3.3950582677720366e-02 -8.7440594429238072e-02 0.0000000000000000e+00  -2.5765369467404275e-02 9.3146877057341440e-02 0.0000000000000000e+00  -7.4392357395509076e-02 1.2542632835416279e-02 0.0000000000000000e+00  -9.6958985767570949e-03 -9.4488889270028964e-02 0.0000000000000000e+00  -4.7341875238553085e-06 -9.3983196123150065e-02 0.0000000000000000e+00  -1.6894469598910371e-02 -6.4150408063071027e-02 0.0000000000000000e+00  8.7522252190929531e-02 -1.3279916923057522e-02 0.0000000000000000e+00  1.0325040794087491e-01 8.6006681106788902e-03 0.0000000000000000e+00  -1.0400716166669986e-01 -5.0618354372918830e-03 0.0000000000000000e+00  2.1173453005799387e-02 1.4677484466813839e-01 0.0000000000000000e+00  6.7640283999525264e-02 -1.3660789700594174e-02 0.0000000000000000e+00  8.0726917803075129e-02 2.7431984675906743e-02 0.0000000000000000e+00  1.8219418716194143e-02 9.6298403341856839e-02 0.0000000000000000e+00  -2.1609540342860063e-02 1.1488027919237791e-01 0.0000000000000000e+00  7.8325629612200520e-02 -6.3267998869996858e-02 0.0000000000000000e+00  2.1378144037065248e-03 1.7348038742477870e-01 0.0000000000000000e+00  2.5321441954734236e-02 1.4198733982599873e-01 0.0000000000000000e+00  -9.5643822051659291e-02 -3.8492774819819442e-02 0.0000000000000000e+00  9.7055578801978654e-02 -3.5975108326817967e-02 0.0000000000000000e+00  -4.6401970510448254e-02 -3.3883827721382570e-02 0.0000000000000000e+00  -8.9628680921449239e-02 -1.8196525870180568e-02 0.0000000000000000e+00  -5.1894561873480266e-02 1.0143483750225552e-02 0.0000000000000000e+00  -5.8771563512141547e-03 -2.9576397098868244e-02 0.0000000000000000e+00  -7.6927377113488835e-02 -8.1938404094978837e-02 0.0000000000000000e+00  -7.9919866603506237e-02 -6.1739903739264947e-02 0.0000000000000000e+00  1.0096363440916680e-02 9.8502183507499244e-02 0.0000000000000000e+00  4.1587419297927274e-02 -1.1561448575138057e-01 0.0000000000000000e+00  -5.0541825824127258e-02 -5.2562750380654562e-02 0.0000000000000000e+00  5.8560820441171176e-02 4.1634622371432881e-02 0.0000000000000000e+00  -6.4364055951841401e-02 7.8232761752987739e-02 0.0000000000000000e+00  4.7559413159589399e-02 -5.1201787028673083e-02 0.0000000000000000e+00  -2.1254714867054821e-02 1.4917895351476759e-01 0.0000000000000000e+00  -3.1574363577930670e-02 -1.1917208835884952e-01 0.0000000000000000e+00  -6.1726411546612930e-02 -7.9882208712218572e-02 0.0000000000000000e+00  5.7129626176271923e-02 -8.3288373850726058e-02 0.0000000000000000e+00  4.3195983609562047e-02 9.0593832938260802e-02 0.0000000000000000e+00  -3.4710354735423631e-02 -9.4114636321617637e-02 0.0000000000000000e+00  2.5073814580580844e-02 -9.4930551152222459e-02 0.0000000000000000e+00  5.1464813494199825e-02 -3.7051533149456001e-03 0.0000000000000000e+00  -4.6811840111797134e-02 -1.0507525066351987e-01 0.0000000000000000e+00  2.0601293654185001e-02 -1.7452705406262477e-02 0.0000000000000000e+00  1.0288381026277233e-02 -9.6472785677885309e-02 0.0000000000000000e+00  -2.8671599209481247e-02 -2.1133750686032102e-02 0.0000000000000000e+00  -2.0334472212810106e-02 -1.3024490016425741e-01 0.0000000000000000e+00  -5.1826400623906296e-02 -8.4041972952231023e-02 0.0000000000000000e+00  1.0127453912244956e-01 -1.7185914251841163e-02 0.0000000000000000e+00  7.9743026474293419e-02 -7.9475133609954077e-02 0.0000000000000000e+00  -9.6617772900696314e-02 3.7339328805232108e-02 0.0000000000000000e+00  7.3212979847784493e-02 4.4853599953377427e-02 0.0000000000000000e+00  -6.5066970511185332e-02 5.9347655133403364e-02 0.0000000000000000e+00  7.0779553138177104e-02 4.1319131596158326e-02 0.0000000000000000e+00  -1.8655939131769498e-02 9.7867185839389803e-02 0.0000000000000000e+00  1.4605121727931667e-02 1.2580191117304976e-01 0.0000000000000000e+00  9.3636961926063925e-02 -8.5320107015874561e-03 0.0000000000000000e+00  3.7822692358275234e-02 -9.3455015877494316e-02 0.0000000000000000e+00  4.9737784788479816e-02 -1.0677408805436883e-01 0.0000000000000000e+00  2.6850762251042624e-02 -1.3091988415581562e-01 0.0000000000000000e+00  1.4912519685205593e-02 1.5034255185558171e-01 0.0000000000000000e+00  -1.2304882638246426e-02 -8.9434365689154513e-02 0.0000000000000000e+00  -8.3769642053901083e-02 2.2393888676951128e-02 0.0000000000000000e+00  8.9895492090627277e-02 -4.9835203747677255e-02 0.0000000000000000e+00  -2.6831410593596009e-02 9.8866706773677690e-02 0.0000000000000000e+00  8.7623526545117750e-02 -5.1700635769669087e-02 0.0000000000000000e+00  -7.8670091944588641e-02 -6.4982436309392114e-02 0.0000000000000000e+00  2.1034794226276916e-02 7.1400585383714299e-02 0.0000000000000000e+00  3.9518808968578976e-02 6.5281018752380154e-02 0.0000000000000000e+00  7.8254085369791920e-02 -6.7063470598358266e-02 0.0000000000000000e+00  -5.5584443442772628e-02 8.4641212529751389e-02 0.0000000000000000e+00  -2.8711848988802531e-02 1.2649117917949373e-01 0.0000000000000000e+00  6.9292604481526299e-02 -7.4611248883270309e-02 0.0000000000000000e+00  -6.7054754171122178e-03 -9.9167990546387599e-02 0.0000000000000000e+00  -1.5997134983056809e-02 -6.2503472247263950e-02 0.0000000000000000e+00  -1.6415264296977608e-02 8.2571373795757783e-02 0.0000000000000000e+00  -4.6401195183453786e-02 7.2282685643230205e-02 0.0000000000000000e+00  -8.4489375867677602e-02 2.7420553558164400e-02 0.0000000000000000e+00  1.6695026533840118e-03 -8.4286729684730680e-02 0.0000000000000000e+00  -7.3317548511738231e-02 -6.5969368755748298e-02 0.0000000000000000e+00  -4.7969183573545321e-02 -9.0181614130568286e-02 0.0000000000000000e+00  -4.5864658341832454e-02 -3.0510387941811396e-02 0.0000000000000000e+00  2.1871132497026859e-02 9.9692046749096042e-02 0.0000000000000000e+00  -5.4790497618025201e-03 1.5113546900216715e-01 0.0000000000000000e+00  -1.2319107709246055e-02 1.5689121910474907e-01 0.0000000000000000e+00  2.8051494569201800e-02 8.8023333205456744e-02 0.0000000000000000e+00  4.7542480226482969e-02 -8.7663780102798197e-02 0.0000000000000000e+00  -1.0035788757844545e-01 2.9484006868854908e-02 0.0000000000000000e+00  -7.3052285753469795e-02 3.8785152491643049e-02 0.0000000000000000e+00  -7.2701553009855480e-02 7.3628646528658484e-02 0.0000000000000000e+00  -9.5741484164560214e-02 -2.7415308288003135e-02 0.0000000000000000e+00  -9.4854683194845274e-02 -1.2097837167138933e-02 0.0000000000000000e+00  9.3947863890791419e-02 4.3864250104618162e-02 0.0000000000000000e+00  -1.3707420267923313e-02 6.5170881076161383e-02 0.0000000000000000e+00  -4.9373456630107268e-02 5.2382208190654610e-02 0.0000000000000000e+00  5.7601580815810911e-02 6.2846273899730382e-02 0.0000000000000000e+00  -2.0997257495211637e-02 -9.8819685822838343e-02 0.0000000000000000e+00  7.9337145300000605e-02 3.6434388996509026e-02 0.000000000000000