<?xml version="1.0"?>
<VTKFile type="UnstructuredGrid"  version="0.1"  >
<UnstructuredGrid>
<Piece  NumberOfPoints="1417" NumberOfCells="2668">
<Points>
<DataArray  type="Float64"  NumberOfComponents="3"  format="ascii">-0.9959820154436426 0.2688139244315086 0  -0.9902344069794552 0.1577075842796468 0  -0.971696702208409 0.04743491212864869 0  -0.9405013973635896 -0.06052246038604943 0  -0.8971692747676497 -0.1642174407271587 0  -0.8421947632120939 -0.2625581388606119 0  -0.7766255153206145 -0.3539523223173496 0  -0.702145906414163 -0.4361792435297632 0  -0.620735499977616 -0.5084056341180341 0  -0.5367316905356243 -0.5682584231362789 0  -0.4510469758363888 -0.6172822803417684 0  -0.3621723510367976 -0.6570529455744786 0  -0.2712390335877187 -0.6876084500829872 0  -0.178861139438119 -0.7091782667989555 0  -0.08737453404973813 -0.721560270784173 0  -0.002083283872641999 -0.7251857552955346 0  0.08352089488412737 -0.721183123794829 0  0.1738856134991489 -0.7084828194999153 0  0.2651364778522363 -0.6868097910159983 0  0.3552776265649643 -0.6561505162086718 0  0.4434211832095799 -0.6164659924026636 0  0.5284308437471804 -0.5677933477882845 0  0.6112120945381949 -0.5088646927214809 0  0.6903453943809483 -0.4392457142035723 0  0.7648791711564048 -0.3580578340122783 0  0.8311355691550292 -0.2673392668794274 0  0.8869734670864241 -0.1693142927008557 0  0.9306656475520276 -0.06664412740615962 0  0.9627223340999056 0.04120710086958476 0  0.9821834536690134 0.1524069144667883 0  0.9886510064669038 0.2630228722558039 0  0.9825052109507746 0.3740041962055453 0  0.9637284501948866 0.4837997408676189 0  0.9325354989003212 0.5906322177954915 0  0.8900615004820597 0.6918480328330127 0  0.8361431923456824 0.7880113997526682 0  0.7718304933940194 0.8774043868842556 0  0.6971242713552829 0.9599172358365214 0  0.6145221995785021 1.032798970051135 0  0.5242225889345694 1.096091686193988 0  0.4272756989998392 1.149097115882332 0  0.3252378453196513 1.190899936499417 0  0.2194995188898427 1.221155091046195 0  0.1103119896267349 1.239717133732461 0  -0.001000912345920199 1.246048997986348 0  -0.1109351143103259 1.240243801140031 0  -0.2199226980221977 1.222314883098308 0  -0.3268489379722415 1.192228811619498 0  -0.429242412070037 1.150747004684493 0  -0.5263386875421964 1.098270755272785 0  -0.6166258802021978 1.0356812444605 0  -0.6999817607873934 0.9629999760529246 0  -0.7743421432835178 0.8818180624279017 0  -0.8396315425432676 0.7922764324720702 0  -0.8942194712145886 0.6963483488773079 0  -0.9376974093000033 0.5944730899770587 0  -0.9692795227204477 0.4890189758324404 0  -0.9889225992024914 0.3795640556609527 0  2.66323876335453 3.345400078259132e-07 0  2.655436741329254 0.2038692491095707 0  2.632025897664116 0.4065394633382253 0  2.593182022843294 0.6068274340043096 0  2.539124142534714 0.8035513271318795 0  2.470160233087605 0.9955617870723794 0  2.386703019492733 1.181731049712798 0  2.289239415598001 1.360962892134145 0  2.178341418525407 1.532208707234992 0  2.054661445884004 1.694466474982883 0  1.918933832527457 1.846782791117371 0  1.771921066307012 1.988246859013839 0  1.614537734614266 2.118068767733704 0  1.447656445188312 2.235441938004965 0  1.272293680997148 2.339697326118516 0  1.08945215660534 2.430228403544099 0  0.9002288069319411 2.506493023108613 0  0.7057099983398357 2.568038099857246 0  0.5070574400753238 2.61452467347551 0  0.3054280412735327 2.64568231617204 0  0.1020111856436527 2.661289334484113 0  -0.1020054274863599 2.661299207858505 0  -0.3054299084552127 2.645671083146833 0  -0.507054089210351 2.614540449865908 0  -0.7057092514425511 2.568040284517226 0  -0.9002212862322763 2.506483039082422 0  -1.089459246842602 2.430225496395085 0  -1.272288022141651 2.339700188438036 0  -1.447659549918863 2.235445812480387 0  -1.614528722239233 2.118067276281233 0  -1.771931000442763 1.988257653675529 0  -1.918926659247228 1.846787834359414 0  -2.054669287003839 1.694477126872639 0  -2.17835365708128 1.532216143183526 0  -2.289241252969639 1.360964597434697 0  -2.386715482583073 1.181732091619738 0  -2.470161202215151 0.9955626784047391 0  -2.539133232504207 0.8035580875575161 0  -2.593194430861517 0.6068301336586913 0  -2.632026557034433 0.406539368521884 0  -2.655435328286818 0.2038736370785222 0  -2.663235671498416 1.988859891879906e-07 0  -2.655421718037255 -0.2038712020401708 0  -2.632025803386648 -0.4065444940360549 0  -2.593193137905208 -0.6068277886684249 0  -2.539130756061751 -0.8035606249127385 0  -2.470168951811124 -0.9955694248058429 0  -2.386713238928087 -1.181733648406094 0  -2.289248297451319 -1.36097329679013 0  -2.178348539855197 -1.532218898319952 0  -2.054668778207921 -1.694472913435749 0  -1.918928627854487 -1.846785487945307 0  -1.771934069656089 -1.988254686670126 0  -1.614530160613012 -2.118065012665332 0  -1.447651587955803 -2.235432600061275 0  -1.272284810550489 -2.339701034196646 0  -1.089449947565617 -2.430226796229763 0  -0.9002277174832187 -2.506490281274113 0  -0.7057153447959535 -2.568049274004947 0  -0.5070567262648233 -2.614526454336401 0  -0.3054284555456487 -2.64568146662377 0  -0.1020088807046936 -2.661287633883587 0  0.102006987857432 -2.661297967284505 0  0.3054325826467381 -2.64568067139483 0  0.5070570275826497 -2.614526021791532 0  0.7057157492545988 -2.56804913979619 0  0.9002262520129876 -2.506494964763088 0  1.089455481883548 -2.430225171476471 0  1.27228451974061 -2.339701821084303 0  1.447651381524408 -2.235433403091689 0  1.614530286812775 -2.11806639834399 0  1.77193072011805 -1.988257199400428 0  1.918929164841975 -1.846784464918135 0  2.054666516587176 -1.694477980245841 0  2.17835366925523 -1.532213159283164 0  2.289247836290303 -1.360971582984082 0  2.386713167523874 -1.181735511586869 0  2.470159654410467 -0.9955618758459943 0  2.539132974659263 -0.8035512676646358 0  2.593193327726393 -0.6068305790789139 0  2.632036921414295 -0.4065425152086483 0  2.655433971767562 -0.2038760689209646 0  -0.004840839054569628 0.2681086300978673 0  -0.1275634242007545 -1.690789836821483 0  0.8669971435085345 -1.479919551332477 0  -1.061305195519041 -1.359233311900961 0  1.541104712598388 -0.8493681677012798 0  -1.669606579904159 -0.612139024614451 0  1.812284562949204 -0.06453664556538177 0  -1.826148020611112 0.1955577399238334 0  1.715941391061363 0.7526361365717005 0  -1.61729610180908 0.9768406677390474 0  1.275915834349219 1.43242429997597 0  -1.132173424479463 1.563695229612554 0  0.5948565138029441 1.858489570403003 0  -0.463053259245189 1.896589066551828 0  0.4539806174619302 -1.966903792753152 0  -0.7309698234500955 -1.89270092923513 0  -1.651825330208962 -1.263692662170228 0  1.451122235857565 -1.512460400637652 0  0.06250731272292634 1.779124751431213 0  0.3250839982678797 -1.422114790632836 0  2.032369599217563 -0.5703915207862941 0  -0.4752001601043103 -1.248821332354734 0  0.4895564651125099 0.3556687189915143 0  -0.5056071710084532 0.2497613166870273 0  0.9541897463318096 -0.9502016565191439 0  0.2977066343652905 -0.1088835410934371 0  -2.116062354747465 -0.2523888548097949 0  -0.2599439417168304 0.6887517841107625 0  -0.2176342653886163 -0.1625562560975405 0  -1.131130168201738 -0.8117620830998512 0  2.100753986154893 0.3922132639195005 0  -0.0003088072382034981 -2.179547410737053 0  0.9420213566225119 -1.966993041072836 0  -1.2068162529546 -1.822087129765289 0  1.370125779508831 -0.3660322296886011 0  -2.046263784362918 0.7234605801743684 0  1.823930048450898 -1.229551045308166 0  -1.4440359546236 -0.1631396602543326 0  1.745822418047416 1.317785833247921 0  -1.989456151087768 -0.951509577759299 0  -1.649762311658679 1.457175474818897 0  1.083526991868378 1.889223046845979 0  0.1719374832407586 2.220399168231565 0  1.486029961702295 0.3000061725324156 0  -0.05753948241787528 -1.242819831046644 0  -0.9244431565438405 1.992184794148926 0  -1.460801329455619 0.5068206235345705 0  2.229085617483944 -0.1917517284222122 0  0.2137607669385804 0.7413343765922475 0  1.28961223095073 0.9505091813395938 0  -2.245697277527742 0.1420427210306921 0  0.8174258460379283 1.449799554713912 0  0.5337550772756664 -1.07056821060102 0  -1.162429093017474 1.107414846234697 0  -0.8048200021879749 -1.041215755258312 0  -0.6811255388016486 1.509119514733932 0  -0.3608943691059395 -2.022749209083976 0  2.121648107769817 0.7954261788649383 0  -1.989948946039182 1.111409012064932 0  -0.3520356861522024 2.268279420299455 0  1.445429654322991 1.780089803965266 0  -1.33267359871301 1.883341131358432 0  -1.584343042551219 -1.647945094699953 0  1.300764873633853 -1.150409276006528 0  0.3711160045739775 1.557586295665125 0  -1.177078563644468 -0.4455017301743908 0  1.060115904296488 -0.5975452787796244 0  -2.039848726111489 -0.599815904936616 0  0.5462572453189224 2.234477653046739 0  -0.255535171385592 1.5873376926303 0  2.084808157687966 -0.9481954017970399 0  0.7013411882230518 -2.221714815265869 0  0.3294308624650593 -2.298126886668902 0  1.31755301301982 -1.8760726319779 0  1.000031405835476 1.145751876608764 0  1.314434948751486 -0.02368115231140816 0  1.300289017814882 0.5931879165950152 0  -0.4760027643940122 -1.613519010750063 0  -1.476048592404549 0.1699102322056407 0  -0.6433682884560425 -2.229909036584401 0  -1.316033856826682 0.8073904536229198 0  -1.317517009134198 -1.118633151134762 0  1.728706268064399 -0.3938676227462016 0  0.1971949831820221 -1.05948771645672 0  -1.652049684394436 -0.9361817763304024 0  0.6082607270195157 0.02507917656396867 0  -0.5498711464036361 -0.09588853375163818 0  0.04928311553425434 -0.3490489477659842 0  -1.793443772507821 -0.1354825791673553 0  0.6905191168845455 -1.747745514142657 0  0.1398761605103524 -1.876788538207752 0  2.032867840804811 1.130093619955343 0  -0.7466519356178755 -1.447164200094345 0  -0.5849110719733545 0.5754737748304041 0  -1.00967778586393 -2.100541971409515 0  -1.979908402326789 -1.273365793653298 0  -0.1627818669299402 2.008699129010574 0  0.8267108500714797 2.080333507131486 0  -0.6507351989989431 2.156566546962405 0  1.7
[...]
<PointData  Vectors="f_4515-0"> 
<DataArray  type="Float64"  Name="f_4515-0"  NumberOfComponents="3" format="ascii">5.1490285508663022e-03 -7.1246311819414931e-02 0.0000000000000000e+00  2.0540077111020988e-02 -8.1200884698565332e-02 0.0000000000000000e+00  3.8589976462725918e-02 -9.0248147834173079e-02 0.0000000000000000e+00  5.9329789420872352e-02 -9.7735588122235512e-02 0.0000000000000000e+00  8.2057422689365569e-02 -1.0209320073565217e-01 0.0000000000000000e+00  1.0642474377481528e-01 -1.0406442733951889e-01 0.0000000000000000e+00  1.3099705528182734e-01 -1.0151204403735231e-01 0.0000000000000000e+00  1.5277555636607540e-01 -9.1501541274350451e-02 0.0000000000000000e+00  1.6635210449278862e-01 -7.3393662383030231e-02 0.0000000000000000e+00  1.6493960795331775e-01 -4.8095967855742633e-02 0.0000000000000000e+00  1.5327926229190020e-01 -2.1333176228237081e-02 0.0000000000000000e+00  1.3660382385291908e-01 2.2494987435816528e-03 0.0000000000000000e+00  1.1457381800962713e-01 2.2496354521127422e-02 0.0000000000000000e+00  8.9155465509147006e-02 3.8273456156102025e-02 0.0000000000000000e+00  5.6412439169320532e-02 4.9475656016225042e-02 0.0000000000000000e+00  8.0209936431089347e-03 5.4588179628702230e-02 0.0000000000000000e+00  -4.1752857625432099e-02 5.0855655467977948e-02 0.0000000000000000e+00  -7.7189374650820888e-02 4.0807865125628728e-02 0.0000000000000000e+00  -1.0503516955008001e-01 2.5727528222165331e-02 0.0000000000000000e+00  -1.2772821248900720e-01 6.3380351083919218e-03 0.0000000000000000e+00  -1.4569973289409593e-01 -1.6574708185549777e-02 0.0000000000000000e+00  -1.5842395769034512e-01 -4.1970943572226589e-02 0.0000000000000000e+00  -1.6316653312408533e-01 -6.8368921062431712e-02 0.0000000000000000e+00  -1.5717209835236251e-01 -9.1836990261506060e-02 0.0000000000000000e+00  -1.3780124808533398e-01 -1.0480984378051499e-01 0.0000000000000000e+00  -1.1315722763963552e-01 -1.0881701027073307e-01 0.0000000000000000e+00  -8.8214558402277474e-02 -1.0716462739928219e-01 0.0000000000000000e+00  -6.5553748639416140e-02 -1.0419965891227310e-01 0.0000000000000000e+00  -4.3897638170664686e-02 -9.6697357558030259e-02 0.0000000000000000e+00  -2.4926467117112522e-02 -8.5817248847367550e-02 0.0000000000000000e+00  -9.2623695040233642e-03 -7.6970249607395527e-02 0.0000000000000000e+00  4.2552252089227234e-03 -6.5900504921815137e-02 0.0000000000000000e+00  1.5303373159445639e-02 -5.3415993745115610e-02 0.0000000000000000e+00  2.3775067052174595e-02 -4.0601603914753460e-02 0.0000000000000000e+00  3.0962108111259871e-02 -3.0312066926674791e-02 0.0000000000000000e+00  3.5464372268030044e-02 -1.8485418166482401e-02 0.0000000000000000e+00  3.8381894067297175e-02 -7.7010256988048241e-03 0.0000000000000000e+00  3.7362528490167891e-02 4.8768574779093424e-03 0.0000000000000000e+00  3.6318447420652183e-02 1.4530968151626458e-02 0.0000000000000000e+00  3.3347129993005452e-02 2.3505084577978088e-02 0.0000000000000000e+00  2.8630245445628168e-02 3.1420524897389876e-02 0.0000000000000000e+00  2.3208733196589556e-02 3.7645471205890846e-02 0.0000000000000000e+00  1.7334335577693323e-02 4.2220580593862453e-02 0.0000000000000000e+00  9.3396003840799883e-03 4.5515159668478467e-02 0.0000000000000000e+00  -5.7678996312646397e-04 4.6855659922357802e-02 0.0000000000000000e+00  -7.3158067332255673e-03 4.6241104502534394e-02 0.0000000000000000e+00  -1.4792453751247795e-02 4.3869154636884927e-02 0.0000000000000000e+00  -2.3205909067521530e-02 3.9146906199147763e-02 0.0000000000000000e+00  -2.9082604632514664e-02 3.3190661538656387e-02 0.0000000000000000e+00  -3.4147208202012336e-02 2.5589349268182369e-02 0.0000000000000000e+00  -3.6608807205991495e-02 1.7567944824145899e-02 0.0000000000000000e+00  -3.8723154934931198e-02 7.4404342644698758e-03 0.0000000000000000e+00  -3.8225069833511573e-02 -2.6052282174634615e-03 0.0000000000000000e+00  -3.7025343923022272e-02 -1.4889574642227349e-02 0.0000000000000000e+00  -3.2880088105842906e-02 -2.6203451803685902e-02 0.0000000000000000e+00  -2.6891895752234097e-02 -3.8405652090139457e-02 0.0000000000000000e+00  -1.8232506584612947e-02 -4.8696215116468301e-02 0.0000000000000000e+00  -7.8180172435623509e-03 -6.0864350780154924e-02 0.0000000000000000e+00  1.5090538262735767e-01 9.4601643925592041e-08 0.0000000000000000e+00  1.5049783046699142e-01 1.1552088892044546e-02 0.0000000000000000e+00  1.4913428103550713e-01 2.3031442565156730e-02 0.0000000000000000e+00  1.4693300311182808e-01 3.4377528546519515e-02 0.0000000000000000e+00  1.4387679390046718e-01 4.5527840810591517e-02 0.0000000000000000e+00  1.3996401825860530e-01 5.6404765652167690e-02 0.0000000000000000e+00  1.3523764241227490e-01 6.6955128335760949e-02 0.0000000000000000e+00  1.2971450814896485e-01 7.7110700968049811e-02 0.0000000000000000e+00  1.2342872907257971e-01 8.6814975916563286e-02 0.0000000000000000e+00  1.1642637200417344e-01 9.6014409360324293e-02 0.0000000000000000e+00  1.0876794171595047e-01 1.0465943625442381e-01 0.0000000000000000e+00  1.0039356901653922e-01 1.1265725247205581e-01 0.0000000000000000e+00  9.1526726840421707e-02 1.2005101002831971e-01 0.0000000000000000e+00  8.2045283649041387e-02 1.2669574911564835e-01 0.0000000000000000e+00  7.2127358564077884e-02 1.3259642947561862e-01 0.0000000000000000e+00  6.1740769557175106e-02 1.3774030909656618e-01 0.0000000000000000e+00  5.1037850982484805e-02 1.4205627927292566e-01 0.0000000000000000e+00  3.9994782922152104e-02 1.4551189296853878e-01 0.0000000000000000e+00  2.8727540677015009e-02 1.4814887996374865e-01 0.0000000000000000e+00  1.7303969941828413e-02 1.4995259029565158e-01 0.0000000000000000e+00  5.7835688169713111e-03 1.5080830195617115e-01 0.0000000000000000e+00  -5.7681541940255241e-03 1.5083598824666378e-01 0.0000000000000000e+00  -1.7307965359503914e-02 1.4992112958064546e-01 0.0000000000000000e+00  -2.8722367139841255e-02 1.4819220451970855e-01 0.0000000000000000e+00  -3.9987302311781089e-02 1.4551925584997974e-01 0.0000000000000000e+00  -5.1013630330784182e-02 1.4202924486381030e-01 0.0000000000000000e+00  -6.1768386906208950e-02 1.3772885733136561e-01 0.0000000000000000e+00  -7.2107843672849989e-02 1.3260592129488880e-01 0.0000000000000000e+00  -8.2053811302147409e-02 1.2670715382394002e-01 0.0000000000000000e+00  -9.1495547030185850e-02 1.2005073062779553e-01 0.0000000000000000e+00  -1.0043187443598621e-01 1.1267869181822103e-01 0.0000000000000000e+00  -1.0874578307060130e-01 1.0467452776143579e-01 0.0000000000000000e+00  -1.1644603369828838e-01 9.6047153345317451e-02 0.0000000000000000e+00  -1.2346480798400282e-01 8.6833403299377637e-02 0.0000000000000000e+00  -1.2971949828937449e-01 7.7115020507026219e-02 0.0000000000000000e+00  -1.3527188907342680e-01 6.6959915203849404e-02 0.0000000000000000e+00  -1.3996682497629784e-01 5.6407642645025367e-02 0.0000000000000000e+00  -1.4390476759932516e-01 4.5538548766470267e-02 0.0000000000000000e+00  -1.4696605019410269e-01 3.4392288603578555e-02 0.0000000000000000e+00  -1.4913623248804922e-01 2.3030858492904094e-02 0.0000000000000000e+00  -1.5049365361611369e-01 1.1565337428891700e-02 0.0000000000000000e+00  -1.5089665757961598e-01 -1.2158039301767560e-07 0.0000000000000000e+00  -1.5045568808969145e-01 -1.1556136455575407e-02 0.0000000000000000e+00  -1.4913463040278122e-01 -2.3044164519609042e-02 0.0000000000000000e+00  -1.4696298320074905e-01 -3.4384739570119317e-02 0.0000000000000000e+00  -1.4389681326563880e-01 -4.5549818296801575e-02 0.0000000000000000e+00  -1.3998760701854293e-01 -5.6429332592501671e-02 0.0000000000000000e+00  -1.3526687214032576e-01 -6.6961678166734914e-02 0.0000000000000000e+00  -1.2973778138126063e-01 -7.7142542405166950e-02 0.0000000000000000e+00  -1.2345023885132529e-01 -8.6841159158414921e-02 0.0000000000000000e+00  -1.1644681224066011e-01 -9.6032842790881923e-02 0.0000000000000000e+00  -1.0875177552904865e-01 -1.0466831214744327e-01 0.0000000000000000e+00  -1.0044050948999939e-01 -1.1267064765479497e-01 0.0000000000000000e+00  -9.1503178755958842e-02 -1.2004241106838706e-01 0.0000000000000000e+00  -8.2031118975696066e-02 -1.2667059847686118e-01 0.0000000000000000e+00  -7.2098494113861045e-02 -1.3260918155217799e-01 0.0000000000000000e+00  -6.1733826352900111e-02 -1.3773638005942446e-01 0.0000000000000000e+00  -5.1034566765452351e-02 -1.4204863507636845e-01 0.0000000000000000e+00  -4.0005134404744395e-02 -1.4554449716838805e-01 0.0000000000000000e+00  -2.8730857250498305e-02 -1.4815265079007256e-01 0.0000000000000000e+00  -1.7302731909500456e-02 -1.4995049162512633e-01 0.0000000000000000e+00  -5.7796126293641441e-03 -1.5080341217511498e-01 0.0000000000000000e+00  5.7739766020968673e-03 -1.5083251684225149e-01 0.0000000000000000e+00  1.7314665072942451e-02 -1.4994819778678148e-01 0.0000000000000000e+00  2.8731723226674322e-02 -1.4815137362854197e-01 0.0000000000000000e+00  4.0009616988831154e-02 -1.4554297061804544e-01 0.0000000000000000e+00  5.1027200555190756e-02 -1.4206289849892129e-01 0.0000000000000000e+00  6.1753541298386318e-02 -1.3772950717015844e-01 0.0000000000000000e+00  7.2093129301672318e-02 -1.3261359193602806e-01 0.0000000000000000e+00  8.2031039268636294e-02 -1.2667242542409643e-01 0.0000000000000000e+00  9.1503287197084254e-02 -1.2004635588792369e-01 0.0000000000000000e+00  1.0043043715674792e-01 -1.1267819439551675e-01 0.0000000000000000e+00  1.0875338673581812e-01 -1.0466521367943150e-01 0.0000000000000000e+00  1.1643790706280206e-01 -9.6050524520055969e-02 0.0000000000000000e+00  1.2346763913227229e-01 -8.6821082545939274e-02 0.0000000000000000e+00  1.2973773064601951e-01 -7.7135066392957988e-02 0.0000000000000000e+00  1.3526365188066888e-01 -6.6973066894236974e-02 0.0000000000000000e+00  1.3996210541375045e-01 -5.6406970832769181e-02 0.0000000000000000e+00  1.4390508462314888e-01 -4.5516699878729076e-02 0.0000000000000000e+00  1.4696359527175631e-01 -3.4390335887182336e-02 0.0000000000000000e+00  1.4916510510887335e-01 -2.3038850366186352e-02 0.0000000000000000e+00  1.5048944762756417e-01 -1.1576458040847074e-02 0.0000000000000000e+00  -3.7366735065504429e-03 7.1667372208513436e-02 0.0000000000000000e+00  2.5463208838575092e-03 -5.0302918076993532e-02 0.0000000000000000e+00  7.6464130451754384e-03 -7.4247878696057770e-02 0.0000000000000000e+00  -1.9138010502032347e-02 -7.3120345739771331e-02 0.0000000000000000e+00  4.5675317496524627e-02 -5.5978707676184708e-02 0.0000000000000000e+00  -4.9298530088494309e-02 -5.1986037166777341e-02 0.0000000000000000e+00  6.5861205097141634e-02 -3.9299425475392197e-02 0.0000000000000000e+00  -7.6475523574359147e-02 -3.3372741131259535e-02 0.0000000000000000e+00  9.0171888577965834e-02 -5.8140941749591007e-03 0.0000000000000000e+00  -9.4410470106621583e-02 8.8988976405212986e-03 0.0000000000000000e+00  8.7874872403715248e-02 4.5888569590506696e-02 0.0000000000000000e+00  -8.1076500361709575e-02 6.0067187266019686e-02 0.0000000000000000e+00  4.7933864994026035e-02 9.0741807754720752e-02 0.0000000000000000e+00  -3.5986433683107936e-02 9.6259511356794211e-02 0.0000000000000000e+00  1.3743323308098082e-02 -1.0116274323013635e-01 0.0000000000000000e+00  -2.7825322005074815e-02 -1.0171484956435377e-01 0.0000000000000000e+00  -8.3053690000718772e-02 -7.5789483936368876e-02 0.0000000000000000e+00  7.3834161035908785e-02 -8.9914369242233852e-02 0.0000000000000000e+00  5.9172925154310019e-03 8.4701242920638034e-02 0.0000000000000000e+00  -2.6915043535716384e-02 -2.5474673240435813e-02 0.0000000000000000e+00  1.0459536686938863e-01 -4.4719251805345986e-02 0.0000000000000000e+00  5.0190006429830215e-02 -4.0254569947141765e-02 0.0000000000000000e+00  1.4897311351824226e-02 2.7954042648693833e-02 0.0000000000000000e+00  -1.1622904915659602e-02 2.2403304456548333e-02 0.0000000000000000e+00  -3.0570107202310442e-02 -6.4951893645630879e-02 0.0000000000000000e+00  -5.0435057104221616e-02 7.7249019809098110e-02 0.0000000000000000e+00  -1.1128279985845345e-01 -3.4995905785167342e-02 0.0000000000000000e+00  -1.8108520824411358e-02 5.5147955233275273e-02 0.0000000000000000e+00  4.8964321763506229e-02 9.1827862579882485e-02 0.0000000000000000e+00  2.6063609867822770e-02 -5.6510458094037777e-02 0.0000000000000000e+00  1.1826800868639681e-01 -5.4188152352943617e-03 0.0000000000000000e+00  -7.9938296321380479e-04 -1.2113702288041599e-01 0.0000000000000000e+00  4.5859601375089432e-02 -1.1543273458449553e-01 0.0000000000000000e+00  -6.3357216781593437e-02 -1.0777197630132283e-01 0.0000000000000000e+00  -1.6907729199517368e-02 -5.8769238202635708e-02 0.0000000000000000e+00  -1.2325703225237100e-01 1.2491622544427650e-02 0.0000000000000000e+00  1.0156665085635765e-01 -7.4616902969016352e-02 0.0000000000000000e+00  8.0993684680758275e-04 -6.0364873152935733e-02 0.0000000000000000e+00  1.1552864537846226e-01 5.1588283579430586e-02 0.0000000000000000e+00  -1.0883068529862094e-01 -6.1829618149164690e-02 0.0000000000000000e+00  -1.1194135104203089e-01 6.3044715619320207e-02 0.0000000000000000e+00  8.0536404130574321e-02 9.7362182992096827e-02 0.0000000000000000e+00  1.4176881818259693e-02 1.3000106312203710e-01 0.0000000000000000e+00  3.1026158138485114e-02 -5.0600823703093080e-02 0.0000000000000000e+00  1.4541682547292923e-02 1.4062035925270949e-02 0.0000000000000000e+00  -6.8596913704510515e-02 1.0820346495878067e-01 0.0000000000000000e+00  -4.7072893128037765e-02 -4.0175190137517566e-02 0.0000000000000000e+00  1.2531086526560606e-01 -2.6340912722254316e-02 0.0000000000000000e+00  1.3210326877320341e-02 5.6909949157025463e-02 0.0000000000000000e+00  6.4366141927870726e-02 -1.0583869427996126e-02 0.0000000000000000e+00  -1.2976946120221217e-01 -1.2761514605157256e-02 0.0000000000000000e+00  5.8757183562165659e-02 4.2103902951837059e-02 0.0000000000000000e+00  -6.9816297339869923e-02 -5.3433586479343563e-02 0.0000000000000000e+00  -6.6875669635428986e-02 5.7421724269812995e-03 0.0000000000000000e+00  4.4292842863776237e-02 -6.3936465334910417e-02 0.0000000000000000e+00  -5.0265634515776980e-02 5.1407359245657244e-02 0.0000000000000000e+00  -1.3228677533129365e-02 -1.0533007468551867e-01 0.0000000000000000e+00  1.3052377966979972e-01 2.3861744477552106e-02 0.0000000000000000e+00  -1.2771463924943235e-01 4.3373162505870248e-02 0.0000000000000000e+00  -2.5615015709929724e-02 1.3412306632928386e-01 0.0000000000000000e+00  1.0119164548547578e-01 9.1770012502913195e-02 0.0000000000000000e+00  -9.3617366489991263e-02 1.0106374344891007e-01 0.0000000000000000e+00  -9.0943561694273672e-02 -9.9275541959401872e-02 0.0000000000000000e+00  3.4715842532938149e-02 -6.7971868419206730e-02 0.0000000000000000e+00  2.9345917027438842e-02 5.8083704749912597e-02 0.0000000000000000e+00  5.4770999144668889e-02 -6.5543726609809921e-02 0.0000000000000000e+00  -6.3291752225420717e-02 -6.4581438123573226e-02 0.0000000000000000e+00  -1.0529797888729737e-01 -4.8072932630723209e-02 0.0000000000000000e+00  4.1461744311760189e-02 1.3063433715868514e-01 0.0000000000000000e+00  -2.0125582443947524e-02 6.3273986540899219e-02 0.0000000000000000e+00  1.1974126389752553e-01 -5.9866017540039909e-02 0.0000000000000000e+00  3.6869359701901611e-02 -1.3257816247974097e-01 0.0000000000000000e+00  1.6328408239288071e-02 -1.3528820714701348e-01 0.0000000000000000e+00  7.3924550848161685e-02 -1.1364136757776895e-01 0.0000000000000000e+00  5.8824899233559859e-02 6.6742634035939002e-03 0.0000000000000000e+00  -1.8410462468325398e-02 -7.3015318463545198e-02 0.0000000000000000e+00  3.6931773504683137e-02 -4.3904486268792058e-02 0.0000000000000000e+00  6.5543138889039287e-03 -5.8489710343623623e-02 0.0000000000000000e+00  -2.1977630993292058e-02 -5.5781596286976994e-02 0.0000000000000000e+00  -3.4620049239392638e-02 -1.3223853642761851e-01 0.0000000000000000e+00  -5.7935293020737591e-02 -2.2611520200966281e-02 0.0000000000000000e+00  -3.1930500659157895e-02 -6.5108293078897039e-02 0.0000000000000000e+00  5.2762389247919927e-02 -4.6362334202886858e-02 0.0000000000000000e+00  -6.0881034087462850e-02 3.6685861496824506e-03 0.0000000000000000e+00  -6.4828785557575139e-02 -6.0089193115853694e-02 0.0000000000000000e+00  -2.0509607562786338e-02 -1.4563406528563682e-02 0.0000000000000000e+00  3.5840575947618782e-02 -3.1574331169365779e-03 0.0000000000000000e+00  -3.6355380494232280e-02 1.0616442653750131e-01 0.0000000000000000e+00  -6.2312333827242043e-02 -4.3863239747394402e-02 0.0000000000000000e+00  1.4521073013034885e-02 -8.5937943532157265e-02 0.0000000000000000e+00  9.5374577182790810e-04 -8.0014290749993694e-02 0.0000000000000000e+00  1.2986059693569896e-01 4.7750954554348163e-02 0.0000000000000000e+00  6.6897812495447006e-03 -6.4844893219470387e-02 0.0000000000000000e+00  -2.9057863139547110e-02 1.4974844845589275e-02 0.0000000000000000e+00  -5.6383024458882519e-02 -1.2603962707536384e-01 0.0000000000000000e+00  -1.1582198891139650e-01 -7.7697910075139806e-02 0.0000000000000000e+00  -1.2209277256609483e-02 1.0860791698246168e-01 0.0000000000000000e+00  6.2496981760363397e-02 1.1610838334399928e-01 0.0000000000000000e+00  -4.8187243834944764e-02 1.2405160521216421e-01 0.0000000000000000e+00  1.0461351632760202e-01 -9.3225005654065773e-02 0.0000000000000000e+00  -6.1337065299117567e-02 2.7904564677326247e-02 0.0000000000000000e+00  -1.5193778348172298e-02 -1.3774442816779056e-01 0.0000000000000000e+00  -1.1673665800147946e-01 -7.7434501676103204e-03 0.0000000000000000e+00  -8.4468953571932959e-02 -2.1021761550560059e-02 0.0000000000000000e+00  2.9042416878347299e-02 1.8460034967003786e-02 0.0000000000000000e+00  -3.5201212968665784e-03 5.7210442284942709e-02 0.0000000000000000e+00  1.3661579443194102e-01 -7.3386464436263526e-03 0.0000000000000000e+00  7.4339708945694957e-02 -3.0767115278878380e-02 0.0000000000000000e+00  9.4683950426913410e-02 -4.4612454459826631e-02 0.0000000000000000e+00  -1.3631710922457682e-01 -3.6152787247730300e-02 0.0000000000000000e+00  -9.2361767725761768e-02 2.7863696351764371e-02 0.0000000000000000e+00  4.7497888268666015e-02 -9.2013857716179412e-02 0.0000000000000000e+00  -6.1228490610715142e-02 -8.1728271438470820e-02 0.0000000000000000e+00  -1.7715753848206823e-03 -5.7556255619274251e-02 0.0000000000000000e+00  -3.1661837670566795e-02 -8.7391113468370543e-02 0.0000000000000000e+00  9.3359080217742446e-02 -1.0706336633266175e-01 0.0000000000000000e+00  9.2336782144952417e-02 2.5041265898949575e-02 0.0000000000000000e+00  9.3293141232224805e-02 -6.8419805248664436e-02 0.0000000000000000e+00  -1.3123590912645516e-01 -5.3289058094259975e-02 0.0000000000000000e+00  -1.3761148367104837e-02 8.6197263559493656e-02 0.0000000000000000e+00  -1.4137960967519747e-01 2.1522302151680325e-02 0.0000000000000000e+00  -2.4365764281628207e-04 -5.4291143765817874e-02 0.0000000000000000e+00  1.3558477206986824e-01 -4.2930363467889414e-02 0.0000000000000000e+00  1.0853030510522466e-01 2.3024088489808962e-02 0.0000000000000000e+00  8.4730338690732085e-02 -5.3619524233127012e-02 0.0000000000000000e+00  2.6584946877657563e-02 -2.0799753102129569e-02 0.0000000000000000e+00  1.1453261263303728e-01 8.2846727145879734e-02 0.0000000000000000e+00  3.0529141323339552e-02 1.0957521342337943e-01 0.0000000000000000e+00  4.2854460552908449e-03 -7.0054346597157688e-02 0.0000000000000000e+00  -8.9440168524496405e-02 -6.8612369754827249e-02 0.0000000000000000e+00  -1.0626591205255025e-01 -9.0054155372764927e-02 0.0000000000000000e+00  -1.5053137045909612e-02 -5.6302949758709364e-02 0.0000000000000000e+00  -5.5423520784096750e-03 -1.6699054358456183e-02 0.0000000000000000e+00  -3.6303849595850008e-03 -6.1466179538514576e-02 0.0000000000000000e+00  -1.4139442036398692e-01 -1.7524979395935003e-02 0.0000000000000000e+00  -1.0780460691234964e-01 9.2756562869047196e-02 0.0000000000000000e+00  -1.2544320329638683e-01 6.8025341077861470e-02 0.0000000000000000e+00  8.0478418611246619e-02 9.7232293519340943e-02 0.0000000000000000e+00  -9.9427213512404120e-02 7.9076780921735590e-02 0.0000000000000000e+00  9.0669981872996755e-03 5.9198039769439659e-02 0.00