<?xml version="1.0"?>
<VTKFile type="UnstructuredGrid"  version="0.1"  >
<UnstructuredGrid>
<Piece  NumberOfPoints="939" NumberOfCells="1746">
<Points>
<DataArray  type="Float64"  NumberOfComponents="3"  format="ascii">-0.9827031760224477 0.02511350516427615 0  -0.9763013728067086 -0.08111966674138335 0  -0.957777923089162 -0.1860689943649087 0  -0.9274925857503814 -0.2882174009957007 0  -0.8852403475249253 -0.3864421333122703 0  -0.8323582432077161 -0.4787099466017701 0  -0.7701771075007382 -0.5633293911065619 0  -0.7000466015137973 -0.6397194944436337 0  -0.6233202043752977 -0.7072005814327604 0  -0.5406415258828503 -0.765756899954116 0  -0.4529121400691795 -0.8152514583617418 0  -0.3612472591340873 -0.855365692042248 0  -0.266176863575499 -0.8862712830833489 0  -0.1680420985218175 -0.9076908264539102 0  -0.06830226453208636 -0.919411635177586 0  0.03220224711328474 -0.9213325517840678 0  0.1325096452698691 -0.9131288617141198 0  0.2311209139641713 -0.8952515488182948 0  0.3274790955172521 -0.8676961993541871 0  0.4207743866226345 -0.830703886788125 0  0.5101660364403244 -0.7843897872405753 0  0.5946648813410744 -0.7290309979933123 0  0.6732290829776749 -0.6648867542929975 0  0.7458146314494043 -0.5919194910224986 0  0.8111207677343951 -0.5099822826878441 0  0.8673886404030302 -0.4202024779478517 0  0.9135279896248253 -0.3237677870767462 0  0.9481745383098603 -0.2228435760327223 0  0.9709647457011878 -0.118969264030928 0  0.9815459462594562 -0.01288115143955278 0  0.9798476302554847 0.09365335523965647 0  0.9660322923924912 0.1990906859503021 0  0.9404035765308781 0.3021015327882878 0  0.9031646327250904 0.4017805284282073 0  0.8552702680567262 0.4964076526120274 0  0.7966970952410184 0.5853083802758157 0  0.7288783477147677 0.6670963073942798 0  0.6525121996489613 0.7410006633477592 0  0.5685966484846862 0.8061432436135412 0  0.4779920924916808 0.8619954910306136 0  0.3820324129220114 0.9077530799960173 0  0.2817816942190268 0.9432633562947003 0  0.1779756902303833 0.9677399418526026 0  0.07234069915862727 0.9810656239409048 0  -0.03405560279127057 0.982919111339035 0  -0.1402348620800646 0.9735751404933973 0  -0.2449141846713897 0.9530737635520021 0  -0.3463650110344285 0.9214909568843018 0  -0.4439601825318398 0.8794120784293163 0  -0.5367889657203023 0.8269677370334163 0  -0.6231091064833624 0.7650824219473225 0  -0.7024905987450925 0.6942294984509241 0  -0.7734952083319162 0.6152262536900734 0  -0.8355388610541571 0.5286266568123333 0  -0.8872895526262046 0.4361510839628409 0  -0.9285645710296543 0.3385588800105099 0  -0.9585256420956313 0.236611984647839 0  -0.9766964722557592 0.1317925095964544 0  -2.091761965707704 0.1011781928219812 0  -2.091757546059853 -0.1011784695025174 0  -2.072230047024609 -0.302591831320985 0  -2.033352179798583 -0.5011764574886663 0  -1.975489276347332 -0.6950836689307729 0  -1.899182014670107 -0.8825002631693813 0  -1.805143941104869 -1.061679596523638 0  -1.694248422959684 -1.230943567287117 0  -1.567537491662796 -1.388715833185436 0  -1.426186118109481 -1.533519174455648 0  -1.271524226350656 -1.66401138904385 0  -1.104989911265895 -1.778962127545584 0  -0.9281347720069615 -1.877305511356039 0  -0.7426181314468597 -1.958118275936419 0  -0.5501627616863993 -2.020647616641659 0  -0.3525721601467771 -2.064316826906339 0  -0.1516940875191712 -2.088707719101251 0  0.05060237572341808 -2.093597565582289 0  0.252428995993477 -2.078936191147094 0  0.4518976221109523 -2.04487091341014 0  0.6471461271648388 -1.991710819998251 0  0.8363518189454698 -1.919950354146465 0  1.017748798653572 -1.830267795798281 0  1.189643531073465 -1.723496599610261 0  1.350434844832817 -1.600634608277108 0  1.498613538927935 -1.462828171220323 0  1.632799963329421 -1.31136089332514 0  1.7517408702624 -1.147652445203365 0  1.85432750227204 -0.9732258819958955 0  1.939600452774556 -0.7897143374557328 0  2.006763800070371 -0.5988305311497985 0  2.055188052822583 -0.4023527464897297 0  2.084429226584446 -0.202120034680668 0  2.094206221669381 -3.06711689330482e-07 0  2.08442619712519 0.2021197071336506 0  2.055188625427196 0.4023518685555437 0  2.006762038553253 0.5988278595901475 0  1.939601471280953 0.7897156358451234 0  1.854326029400342 0.9732253144762268 0  1.751739545110323 1.14764984027646 0  1.632801542774058 1.311360990864914 0  1.498612380447425 1.462829015640671 0  1.350434761235772 1.60063626851212 0  1.18964594501929 1.723500391327626 0  1.017752243605683 1.830270678326164 0  0.8363519498716423 1.919955184417629 0  0.6471451939706738 1.991708115251984 0  0.4518964361962642 2.044868525890673 0  0.2524288729997333 2.078936723423911 0  0.05060398847773975 2.093594499542332 0  -0.1516950082649628 2.088708532398635 0  -0.3525745197500724 2.064313559728357 0  -0.550163510585188 2.020647856603897 0  -0.7426167527489145 1.95811999410476 0  -0.928135792761024 1.877305210047871 0  -1.104989998896925 1.778964488520255 0  -1.271524810760357 1.664011383162032 0  -1.426189934799965 1.533522503173284 0  -1.567538124833832 1.388715733380213 0  -1.694247321313588 1.230941345545836 0  -1.805141789013045 1.061676228147564 0  -1.899184254620525 0.8824992207239217 0  -1.975490683375654 0.6950839957837753 0  -2.033350182324084 0.5011753036427967 0  -2.07223100511579 0.3025874442079751 0  0.001790658198638051 0.04208392477204129 0  -0.03638911669354444 -1.513177415734974 0  0.537517046034692 -1.419556033525004 0  -0.6055533707698226 -1.39254449909932 0  1.037311515030687 -1.11749351298836 0  -1.090705091611859 -1.066922755140618 0  1.408652590623656 -0.5941587610346722 0  -1.432207582894409 -0.5386255520216727 0  -0.6180248909335477 1.411241019456298 0  0.8143013803225533 1.308287325453211 0  1.538201081629702 0.060929149113926 0  0.02910178879856161 1.536364926205706 0  -1.514374907650001 0.28858410588455 0  -1.10860934894974 1.074530737813315 0  1.253164543508417 0.9028169410396482 0  -0.4940205813010551 0.009938673883899421 0  0.4943178499178104 -0.007698117311234536 0  -0.2209264130349638 -0.3834868203054722 0  -0.2559344709181961 0.4429392653007408 0  0.2839479258129165 0.4257920624087964 0  1.35562713215297 0.4662582296728358 0  -1.450266913112614 0.7539640065757394 0  -1.641521851124862 -0.1404967129640781 0  0.2395228673958353 -0.3918067857990954 0  0.3983337333824747 1.340493295216614 0  0.627820686460776 1.623441623642154 0  0.2912174491616598 -1.704583596027056 0  -0.3716376263327775 -1.688132637919086 0  1.399965759959098 -1.017499828684021 0  0.9139586022146186 -1.470662799809967 0  -0.9811788227112235 -1.425090873716048 0  -1.447120005767473 -0.9199959178453863 0  1.592011551620383 0.7343669424227146 0  1.700867759913493 0.381060129205132 0  -0.3334714985434296 1.677809068185702 0  -0.9881528982519845 1.427520143574 0  1.185855037636393 1.269254317729427 0  1.719938630410887 -0.2549312194638861 0  -1.314772319463059 -0.04031358718258048 0  1.318729712580712 -0.2402695913771755 0  -1.236488557036461 0.4839117029549312 0  0.3051959616528162 1.738183726982135 0  -0.2642485210338164 1.316008903530239 0  1.070750412098054 -0.7609795453701317 0  -1.109995666440606 -0.7095196027664428 0  -0.2956209856254548 -1.235224793832238 0  0.2473733245846183 -1.239135089357936 0  0.02092512001056099 0.6468309856063724 0  0.6812686665755574 -1.099674083349001 0  -0.5730870694433289 0.3302170121882225 0  -0.5449815680662734 -0.3182205020776795 0  -0.7346836337994069 -1.067129057959223 0  -0.7723925239906584 1.064859471778029 0  0.9119285567618678 0.9714210244330715 0  0.5929457862809461 0.3077007059751142 0  -1.692813091534446 0.5535028999816365 0  -1.784368615939992 0.1372040089132733 0  -1.062668544819076 0.7544800063679594 0  -1.423534984777465 1.070926261341276 0  -1.734394697891864 -0.5196849207177512 0  1.709312612398196 -0.6032458628176034 0  0.5490895953893234 -0.3253831511813817 0  0.00571293769143804 -0.5998405338521897 0  -0.1008215488261244 -1.800737586138967 0  0.6438897252533979 -1.696799255722492 0  -0.7751493134962857 -1.630812964163477 0  -0.04402814081581843 1.818954050939314 0  1.27887260711373 -1.277848279186347 0  -1.245204711007616 -1.310976155383218 0  1.114553089462853 0.6378936577734896 0  1.152494287727712 -0.4693758909666353 0  -1.224624576405895 -0.3249203162923027 0  -0.4979613734689219 1.156507089544821 0  1.824142683163548 0.08459338737176018 0  1.021083821517426 1.499375653703483 0  -0.7927262596757373 1.631922580462383 0  0.6522958253840894 1.079379019583454 0  1.257706795859911 0.02991729491781248 0  0.1200124075499174 1.263028573649152 0  -1.268923125734209 1.303930582667908 0  1.513675003425275 1.003636732022372 0  -0.0235502795766281 -1.197773726512584 0  0.01049395128586761 0.3272964080031681 0  -1.25556953632525 0.2177755063259766 0  -0.876729962656855 -0.8446044492639988 0  0.8648219888814079 -0.9192243366324145 0  1.613326755079967 -0.8535876418100556 0  -0.7278338455071034 -0.08756504286258865 0  0.7232728723644047 -0.1147934631243279 0  0.3253821258503431 0.6681658553832607 0  0.2366401407560791 -0.1122095638352057 0  0.2715204073667183 0.1559843362884954 0  -0.006610056538987683 -0.2233869528188592 0  -0.2406052059890362 -0.08536098556383667 0  -0.2282372446841473 0.1798791056061445 0  -0.2388537748778739 -0.6336871304163267 0  -0.3000892401534344 0.6822420571844862 0  -1.662531973237635 -0.7704535018756904 0  0.4246073812522342 -0.5495497618533769 0  -1.450093672098604 -1.168982458969833 0  -0.4847721840242372 -1.078222778264633 0  1.176111266923321 0.3079335376798261 0  -1.610933576210467 0.9288358157287042 0  -1.263521423316004 0.8965394141620632 0  0.3078901998604174 -1.468868870968129 0  -1.87242899196987 -0.1840256401812785 0  -0.5615644392951895 1.636424848600733 0  -1.464173716560183 0.5228552610034729 0  0.4368861116633245 -1.091313501511688 0  -0.5904045021740645 -1.778535203855304 0  1.513111760179144 -0.3802120336687677 0  0.1241169096663494 -1.87069009799211 0  1.150603707429658 -1.476358893669714 0  -0.381151558485788 -1.454408580808819 0  1.416362059484324 1.2204
[...]
<PointData  Vectors="f_1797-0"> 
<DataArray  type="Float64"  Name="f_1797-0"  NumberOfComponents="3" format="ascii">-2.0451943147495117e-02 -9.5029925500940235e-02 0.0000000000000000e+00  -2.9378135929606297e-04 -1.0689620812125031e-01 0.0000000000000000e+00  2.2536555201099779e-02 -1.1750416273130969e-01 0.0000000000000000e+00  4.6670416339608847e-02 -1.2425390385825119e-01 0.0000000000000000e+00  7.4606976987974624e-02 -1.2989522939785697e-01 0.0000000000000000e+00  1.0024901246893005e-01 -1.2843672780362578e-01 0.0000000000000000e+00  1.1989874654381687e-01 -1.1563846988738788e-01 0.0000000000000000e+00  1.3173481791493016e-01 -9.5288769252180508e-02 0.0000000000000000e+00  1.3312433247341160e-01 -6.9321896118008111e-02 0.0000000000000000e+00  1.2592861459531993e-01 -4.3058393015200119e-02 0.0000000000000000e+00  1.1171011619546518e-01 -1.8458906886675983e-02 0.0000000000000000e+00  9.0694024982182514e-02 3.1005133643132753e-03 0.0000000000000000e+00  6.5957741117784310e-02 2.0554053857617161e-02 0.0000000000000000e+00  4.2048346570720228e-02 3.2394354687846988e-02 0.0000000000000000e+00  1.6366546445094037e-02 3.8977194669855615e-02 0.0000000000000000e+00  -9.3743669225292078e-03 4.0272518840547868e-02 0.0000000000000000e+00  -3.3914625161914298e-02 3.5972501734403042e-02 0.0000000000000000e+00  -5.9847136645019484e-02 2.5934667196971638e-02 0.0000000000000000e+00  -8.4310030715452261e-02 1.0662628437663649e-02 0.0000000000000000e+00  -1.0517525516607737e-01 -9.0798556735097753e-03 0.0000000000000000e+00  -1.2062365572929405e-01 -3.1886088016682558e-02 0.0000000000000000e+00  -1.3088933050782101e-01 -5.7697053945934114e-02 0.0000000000000000e+00  -1.3538974635682083e-01 -8.4865602760429759e-02 0.0000000000000000e+00  -1.2808441550031607e-01 -1.0829011100496110e-01 0.0000000000000000e+00  -1.0982621677440231e-01 -1.2362360060605003e-01 0.0000000000000000e+00  -8.3680081812307461e-02 -1.2932842908898884e-01 0.0000000000000000e+00  -5.6171188062762868e-02 -1.2560763639085634e-01 0.0000000000000000e+00  -3.0583439540866893e-02 -1.1893704638524526e-01 0.0000000000000000e+00  -7.1155469661877300e-03 -1.1124293909326592e-01 0.0000000000000000e+00  1.4177350633400027e-02 -9.8558161130173974e-02 0.0000000000000000e+00  3.2222982586860474e-02 -8.3656301352916157e-02 0.0000000000000000e+00  4.6987710001369497e-02 -6.8585975656662579e-02 0.0000000000000000e+00  5.8594189870126545e-02 -5.3453760128619271e-02 0.0000000000000000e+00  6.6405884790572453e-02 -3.5674447125212158e-02 0.0000000000000000e+00  7.2379881045583350e-02 -2.0391361810584114e-02 0.0000000000000000e+00  7.3732493143426892e-02 -2.9561182176963577e-03 0.0000000000000000e+00  7.3046282916544303e-02 1.2485013886746027e-02 0.0000000000000000e+00  6.9583791971210243e-02 2.7005369132633093e-02 0.0000000000000000e+00  6.4092070305296248e-02 3.9961406486321946e-02 0.0000000000000000e+00  5.5427060142717983e-02 5.1657568776439032e-02 0.0000000000000000e+00  4.6081296185310518e-02 6.0774997047548331e-02 0.0000000000000000e+00  3.5428871730180597e-02 6.8253283682828486e-02 0.0000000000000000e+00  2.1772924508655270e-02 7.3432061429499748e-02 0.0000000000000000e+00  9.3224180467773986e-03 7.5725626635040483e-02 0.0000000000000000e+00  -3.4669552547306930e-03 7.6251402109428768e-02 0.0000000000000000e+00  -1.7286349519021658e-02 7.5012493255568691e-02 0.0000000000000000e+00  -3.1510941517755825e-02 7.1115706266258696e-02 0.0000000000000000e+00  -4.2191575910406703e-02 6.4735451813712666e-02 0.0000000000000000e+00  -5.1749325595187627e-02 5.6581890781886870e-02 0.0000000000000000e+00  -6.2582184384236711e-02 4.4303760145629936e-02 0.0000000000000000e+00  -6.8014065630686266e-02 3.2308600061914508e-02 0.0000000000000000e+00  -7.2884802815021618e-02 1.7470841155766317e-02 0.0000000000000000e+00  -7.3872214006546630e-02 2.6462324459389473e-03 0.0000000000000000e+00  -7.3828299886847762e-02 -1.5960666889978738e-02 0.0000000000000000e+00  -6.8349582552670068e-02 -3.0945487082545693e-02 0.0000000000000000e+00  -6.0790516280243796e-02 -4.6046840998702397e-02 0.0000000000000000e+00  -5.0879790304106567e-02 -6.2150495600572217e-02 0.0000000000000000e+00  -3.7241456973252242e-02 -7.7664487859641515e-02 0.0000000000000000e+00  -1.2095547241923495e-01 5.8510252811176805e-03 0.0000000000000000e+00  -1.2091185729507058e-01 -5.8526079492515343e-03 0.0000000000000000e+00  -1.1980935757483993e-01 -1.7516451486215931e-02 0.0000000000000000e+00  -1.1756343649494835e-01 -2.8978623328248757e-02 0.0000000000000000e+00  -1.1421820083656302e-01 -4.0190569948260604e-02 0.0000000000000000e+00  -1.0980903422950070e-01 -5.1019308365516304e-02 0.0000000000000000e+00  -1.0438800428161141e-01 -6.1395729105810051e-02 0.0000000000000000e+00  -9.7959391714816282e-02 -7.1171491219701982e-02 0.0000000000000000e+00  -9.0650383763269934e-02 -8.0294626737568639e-02 0.0000000000000000e+00  -8.2444855792751459e-02 -8.8642553068889268e-02 0.0000000000000000e+00  -7.3524125847428887e-02 -9.6229826084233555e-02 0.0000000000000000e+00  -6.3914155188434574e-02 -1.0286708955518599e-01 0.0000000000000000e+00  -5.3665215686890748e-02 -1.0856959164367351e-01 0.0000000000000000e+00  -4.2961860125844395e-02 -1.1322925945929913e-01 0.0000000000000000e+00  -3.1803730090679806e-02 -1.1682330484356691e-01 0.0000000000000000e+00  -2.0361747718198368e-02 -1.1938722983514330e-01 0.0000000000000000e+00  -8.7777089700398839e-03 -1.2079256983445862e-01 0.0000000000000000e+00  2.9097535903169530e-03 -1.2107702722303897e-01 0.0000000000000000e+00  1.4597706833499731e-02 -1.2019269782742380e-01 0.0000000000000000e+00  2.6139970694530942e-02 -1.1825046222444302e-01 0.0000000000000000e+00  3.7424361174206916e-02 -1.1518145448855083e-01 0.0000000000000000e+00  4.8356091989908340e-02 -1.1099405588983140e-01 0.0000000000000000e+00  5.8838308043114462e-02 -1.0580899879917433e-01 0.0000000000000000e+00  6.8772858938829159e-02 -9.9636547126891115e-02 0.0000000000000000e+00  7.8104075152272093e-02 -9.2544222489736205e-02 0.0000000000000000e+00  8.6665322749037738e-02 -8.4591602751568434e-02 0.0000000000000000e+00  9.4417162995006673e-02 -7.5820490465397433e-02 0.0000000000000000e+00  1.0128189607119156e-01 -6.6368805450364374e-02 0.0000000000000000e+00  1.0721519380675361e-01 -5.6266829539125415e-02 0.0000000000000000e+00  1.1214223369236294e-01 -4.5660725207856821e-02 0.0000000000000000e+00  1.1602270119670524e-01 -3.4636647327178756e-02 0.0000000000000000e+00  1.1879493458319093e-01 -2.3261334852849303e-02 0.0000000000000000e+00  1.2051416623422684e-01 -1.1684816788881313e-02 0.0000000000000000e+00  1.2108402480079711e-01 -4.1598163604037810e-06 0.0000000000000000e+00  1.2048404485223295e-01 1.1682034619677309e-02 0.0000000000000000e+00  1.1880049955187683e-01 2.3253125005764541e-02 0.0000000000000000e+00  1.1600491363535734e-01 3.4610658113975110e-02 0.0000000000000000e+00  1.1215223999666415e-01 4.5672875012244200e-02 0.0000000000000000e+00  1.0720021910057707e-01 5.6261295651593157e-02 0.0000000000000000e+00  1.0126872316355255e-01 6.6342666764119346e-02 0.0000000000000000e+00  9.4432585277343342e-02 7.5821537610402931e-02 0.0000000000000000e+00  8.6653368206107556e-02 8.4599896694836793e-02 0.0000000000000000e+00  7.8102039414484903e-02 9.2561408223433228e-02 0.0000000000000000e+00  6.8794989472947682e-02 9.9674940061580314e-02 0.0000000000000000e+00  5.8873696261177805e-02 1.0583663999792298e-01 0.0000000000000000e+00  4.8358475413144052e-02 1.1104128206906713e-01 0.0000000000000000e+00  3.7416588567951478e-02 1.1515428871998970e-01 0.0000000000000000e+00  2.6126804907165600e-02 1.1822724532565783e-01 0.0000000000000000e+00  1.4596902551892209e-02 1.2019798050518819e-01 0.0000000000000000e+00  2.9264683517225853e-03 1.2104672109355957e-01 0.0000000000000000e+00  -8.7867452313165617e-03 1.2080078695940652e-01 0.0000000000000000e+00  -2.0386260504433335e-02 1.1935489931884076e-01 0.0000000000000000e+00  -3.1811356337972191e-02 1.1682587097425381e-01 0.0000000000000000e+00  -4.2947271368940380e-02 1.1324689753969358e-01 0.0000000000000000e+00  -5.3677652857086450e-02 1.0856563446695239e-01 0.0000000000000000e+00  -6.3914366708684819e-02 1.0289101525091275e-01 0.0000000000000000e+00  -7.3529952746869395e-02 9.6229625371377359e-02 0.0000000000000000e+00  -8.2483949194249756e-02 8.8674105757015606e-02 0.0000000000000000e+00  -9.0654580222861741e-02 8.0295457590721611e-02 0.0000000000000000e+00  -9.7948020171141778e-02 7.1149864741616636e-02 0.0000000000000000e+00  -1.0436614799983875e-01 6.1362635823427929e-02 0.0000000000000000e+00  -1.0983214349419568e-01 5.1006850927881597e-02 0.0000000000000000e+00  -1.1423148838966495e-01 4.0194437868539601e-02 0.0000000000000000e+00  -1.1754351874906323e-01 2.8966853333733413e-02 0.0000000000000000e+00  -1.1981920751482912e-01 1.7469603424217526e-02 0.0000000000000000e+00  -3.1962200015514991e-04 1.6879380963631441e-01 0.0000000000000000e+00  -5.8388131123875912e-04 -8.0784928813082649e-02 0.0000000000000000e+00  2.2207212779347146e-02 -7.8904831276976020e-02 0.0000000000000000e+00  -2.4645253283891690e-02 -7.9048079714912831e-02 0.0000000000000000e+00  4.2014519398863207e-02 -6.5039460893468973e-02 0.0000000000000000e+00  -4.2034054796739877e-02 -6.2521340670192854e-02 0.0000000000000000e+00  3.7833554744427046e-02 -6.0475773125782832e-02 0.0000000000000000e+00  -3.9467298204264201e-02 -6.1864849369896523e-02 0.0000000000000000e+00  -6.5463655984623281e-02 7.4000362606678846e-02 0.0000000000000000e+00  8.3461185378394670e-02 5.7514946550051606e-02 0.0000000000000000e+00  7.3611803443657309e-02 -6.3808867395405935e-02 0.0000000000000000e+00  3.8541888919818175e-03 9.4413834013508599e-02 0.0000000000000000e+00  -8.7837009070984323e-02 -5.3519710454746044e-02 0.0000000000000000e+00  -1.0237473073995745e-01 2.3372193544857540e-02 0.0000000000000000e+00  1.0721906907894051e-01 1.1345939837548911e-03 0.0000000000000000e+00  -4.4634554256918743e-02 7.6667672524466060e-02 0.0000000000000000e+00  4.2476120632280463e-02 7.8535110895277635e-02 0.0000000000000000e+00  1.1812219148058767e-02 1.5496595704788579e-01 0.0000000000000000e+00  -3.5277600421928325e-02 1.1064806516227085e-01 0.0000000000000000e+00  3.7390494122211120e-02 1.0859245218813829e-01 0.0000000000000000e+00  8.7315555177367873e-02 -5.0375619947913938e-02 0.0000000000000000e+00  -1.1144385581971496e-01 -8.9421342316150804e-03 0.0000000000000000e+00  -7.9910904846162548e-02 -5.6647527974109206e-02 0.0000000000000000e+00  -1.4444387228500241e-02 1.4977545245320442e-01 0.0000000000000000e+00  4.5867331942646104e-02 7.3120225107435433e-02 0.0000000000000000e+00  5.9092744637066486e-02 9.4834541706587339e-02 0.0000000000000000e+00  1.9029643789756873e-02 -1.0397130706273540e-01 0.0000000000000000e+00  -2.3593360976266031e-02 -1.0310249858774725e-01 0.0000000000000000e+00  7.7724231080423103e-02 -5.9123430493932920e-02 0.0000000000000000e+00  5.9593129291140266e-02 -8.7712181438155318e-02 0.0000000000000000e+00  -6.3338445018824727e-02 -8.4287308404294450e-02 0.0000000000000000e+00  -7.5576432638296720e-02 -5.6417114648364478e-02 0.0000000000000000e+00  1.1673469702506586e-01 3.9582062514137054e-04 0.0000000000000000e+00  1.1114635425540456e-01 -2.5638381728601473e-02 0.0000000000000000e+00  -3.2453905467815923e-02 1.0387815663401537e-01 0.0000000000000000e+00  -8.9349276003565153e-02 7.0488995096883722e-02 0.0000000000000000e+00  1.0295938716871550e-01 5.1847831222532892e-02 0.0000000000000000e+00  9.0642019402184734e-02 -5.0035602564432638e-02 0.0000000000000000e+00  -2.9112384922416325e-02 -8.7530143807801414e-02 0.0000000000000000e+00  1.1107427017570736e-02 -8.6660726460260087e-02 0.0000000000000000e+00  -8.0061819268817627e-02 -5.3765385033922149e-02 0.0000000000000000e+00  2.8915839782655241e-02 1.0821016399103169e-01 0.0000000000000000e+00  -3.1328726140368336e-02 7.6373182991798863e-02 0.0000000000000000e+00  -2.0008130612970930e-02 -6.7590350118659548e-02 0.0000000000000000e+00  2.0189106440934378e-02 -6.9386901717358201e-02 0.0000000000000000e+00  1.1752708496241023e-02 -4.9800265363079556e-02 0.0000000000000000e+00  -8.5255194757909401e-03 -4.5516185057885378e-02 0.0000000000000000e+00  2.6406429521293627e-03 1.0556819414418432e-01 0.0000000000000000e+00  -1.3574394689071095e-02 -6.6073842785996109e-02 0.0000000000000000e+00  -6.1895493502448599e-02 5.0420747822515606e-02 0.0000000000000000e+00  1.1300895619380526e-02 3.6741519873723649e-02 0.0000000000000000e+00  1.3809973533834360e-02 -6.8981192070843952e-02 0.0000000000000000e+00  -8.2315848186127472e-02 3.1327734458355350e-02 0.0000000000000000e+00  9.1259895246726674e-02 1.3241710280192592e-02 0.0000000000000000e+00  6.2185178977085115e-02 4.5136571899078673e-02 0.0000000000000000e+00  -1.1662517577659462e-01 -9.9148357330614278e-03 0.0000000000000000e+00  -1.0897803603669255e-01 -3.2630250331126064e-02 0.0000000000000000e+00  -9.2147143144705734e-02 -1.7898831763202373e-02 0.0000000000000000e+00  -1.1309401027863945e-01 3.3387935684850448e-02 0.0000000000000000e+00  -9.5173883498840137e-02 -4.8941023450183099e-02 0.0000000000000000e+00  9.3951078964868401e-02 -5.0237939364301099e-02 0.0000000000000000e+00  -1.4817264251524515e-02 3.6835422226660051e-02 0.0000000000000000e+00  -1.8764833184103885e-03 1.4045376713512736e-01 0.0000000000000000e+00  -6.4599753843989889e-03 -1.1164903053308084e-01 0.0000000000000000e+00  4.3744524944836029e-02 -1.0423952652840975e-01 0.0000000000000000e+00  -5.2366033267634678e-02 -9.9430493341869888e-02 0.0000000000000000e+00  -3.4758855941466782e-03 1.1500474649944975e-01 0.0000000000000000e+00  8.2321720127825695e-02 -7.2850737366004212e-02 0.0000000000000000e+00  -8.0799793434611494e-02 -7.5311478264573767e-02 0.0000000000000000e+00  8.6457276242430062e-02 -3.4721724048783036e-02 0.0000000000000000e+00  -3.4256260923740074e-02 -9.1672176771238095e-02 0.0000000000000000e+00  1.3692595720161150e-02 -9.3153167929358655e-02 0.0000000000000000e+00  -5.7016145826371205e-02 5.5551373598582317e-02 0.0000000000000000e+00  1.1106085749349882e-01 -3.0416726162372822e-02 0.0000000000000000e+00  8.6806504010661159e-02 7.8955301187118299e-02 0.0000000000000000e+00  -6.9045079519512234e-02 9.3737688670407715e-02 0.0000000000000000e+00  7.3048923575929070e-02 3.9965778975867720e-02 0.0000000000000000e+00  3.1212860421049829e-02 -9.1594162936806195e-02 0.0000000000000000e+00  1.3960828875829301e-02 7.4813696839515983e-02 0.0000000000000000e+00  -1.0298490418513712e-01 5.8513018927764782e-02 0.0000000000000000e+00  1.1552647308377456e-01 2.9589435937163677e-02 0.0000000000000000e+00  3.5126352065511222e-03 -3.0139990656533146e-02 0.0000000000000000e+00  9.3346047926789501e-04 1.3997414370118477e-01 0.0000000000000000e+00  -5.3539211591197539e-02 -7.8527157104142722e-02 0.0000000000000000e+00  4.5455632858813669e-02 -7.8765233817163882e-02 0.0000000000000000e+00  -2.6427900059637750e-02 -7.2685355522294826e-02 0.0000000000000000e+00  9.2231007382798033e-02 -5.4858248680963902e-02 0.0000000000000000e+00  -2.5075984779911627e-02 -3.0144018181285911e-02 0.0000000000000000e+00  2.0839172986541060e-02 -2.9266931930734624e-02 0.0000000000000000e+00  4.1687746205368720e-02 8.3507397649802501e-02 0.0000000000000000e+00  1.8404445791368761e-02 1.5621355623560834e-01 0.0000000000000000e+00  3.3792455271768516e-02 1.3271560216609729e-01 0.0000000000000000e+00  -4.5910166657196934e-04 1.8272091406138810e-01 0.0000000000000000e+00  -2.1724147910918395e-02 1.5387830920536058e-01 0.0000000000000000e+00  -3.0317381501030794e-02 1.3766341471376509e-01 0.0000000000000000e+00  5.3852208856895283e-02 1.0383332895157611e-01 0.0000000000000000e+00  -3.9189668604165860e-02 8.5969986888167912e-02 0.0000000000000000e+00  -9.4185690971408470e-02 -5.2802800896231350e-02 0.0000000000000000e+00  -7.6209703563954456e-02 6.3885942047416835e-02 0.0000000000000000e+00  -9.0975876972078248e-02 -6.6901092799496673e-02 0.0000000000000000e+00  3.9047034486838217e-02 -4.8483285342003517e-02 0.0000000000000000e+00  5.8803063129328551e-02 -7.3310575565757125e-02 0.0000000000000000e+00  -1.1714312794931009e-01 2.7474154847260328e-02 0.0000000000000000e+00  -1.0725413157593325e-01 1.1252152401213052e-03 0.0000000000000000e+00  1.1916187987783683e-02 -7.8542666103702738e-02 0.0000000000000000e+00  -1.1042241350732804e-01 -3.4671453125374847e-02 0.0000000000000000e+00  -5.3485704653232116e-02 9.7268500007775413e-02 0.0000000000000000e+00  -1.0037763830225714e-01 -3.6228863952345654e-02 0.0000000000000000e+00  -3.5739825936385111e-02 -4.1450072654275458e-02 0.0000000000000000e+00  -3.9849321177834129e-02 -1.0953770880827537e-01 0.0000000000000000e+00  5.1704243745811708e-02 -6.3718412083721948e-02 0.0000000000000000e+00  8.5366814986759278e-03 -1.1611274867812087e-01 0.0000000000000000e+00  7.7331853517019211e-02 -8.6700718547145200e-02 0.0000000000000000e+00  -1.3676868700545977e-02 -7.9105113291139631e-02 0.0000000000000000e+00  1.0795462976991671e-01 5.3073128401222164e-02 0.0000000000000000e+00  -6.4061911190997148e-02 -6.0136014675665865e-02 0.0000000000000000e+00  -7.8400366331564789e-02 -6.0304612952844859e-02 0.0000000000000000e+00  5.7799488324654022e-02 6.5161795148091048e-02 0.0000000000000000e+00  8.5061806492086167e-02 -5.6134650040909173e-02 0.0000000000000000e+00  1.0210705846585905e-01 -2.4908844435425941e-02 0.0000000000000000e+00  -6.1125764354338114e-02 6.0618660834434082e-02 0.0000000000000000e+00  5.9689103330621579e-02 8.0278233552886616e-02 0.0000000000000000e+00  6.9935911006259233e-02 9.5969012235446641e-02 0.0000000000000000e+00  -5.3520215270747559e-02 1.1955245007932805e-02 0.0000000000000000e+00  1.1990188490508194e-01 5.1253463385946612e-03 0.0000000000000000e+00  5.2752202976461368e-02 -1.2092488100224785e-02 0.0000000000000000e+00  -1.1906800541576386e-01 -8.7668993541882550e-03 0.0000000000000000e+00  3.5684808624080223e-02 -7.3330680953823460e-02 0.0000000000000000e+00  4.8395697744919468e-02 5.7962367501815298e-02 0.0000000000000000e+00  -4.6201805219546650e-02 1.1335007201123712e-01 0.0000000000000000e+00  -3.2960888969173353e-02 -7.4923058594465047e-02 0.0000000000000000e+00  4.0222583712968898e-02 1.1159935961481125e-01 0.0000000000000000e+00  5.7305271174238011e-02 -5.5247504291210434e-02 0.0000000000000000e+00  -9.1475104247422695e-02 7.5004946721272002e-03 0.0000000000000000e+00  -8.3535604270843902e-02 5.5489972778414838e-02 0.0000000000000000e+00  2.5212833976591520e-02 8.5508866933615271e-02 0.0000000000000000e+00  6.5332409634683966e-02 7.2802418783924572e-02 0.0000000000000000e+00  3.8908950230585160e-02 -5.7606005203395115e-02 0.0000000000000000e+00  -3.2502899857804225e-02 -7.7058722534553536e-02 0.0000000000000000e+00  4.2311501351645103e-02 9.1395357190559856e-02 0.0000000000000000e+00  -3.2574101757611280e-02 1.1441031701453469e-01 0.0000000000000000e+00  1.3352174913786277e-02 -7.6896237407116277e-02 0.0000000000000000e+00  -1.0540802688590499e-02 7.3103688050457485e-02 0.0000000000000000e+00  9.6524478300129793e-02 3.7762329764614633e-02 0.0000000000000000e+00  8.3421060297497546e-02 -9.2223946102967438e-03 0.0000000000000000e+00  1.0838963133839570e-01 -4.1177688960211595e-02 0.0000000000000000e+00  3.1808891901981856e-02 -1.1265457500925168e-01 0.0000000000000000e+00  5.6948154099197686e-02 -1.0359450871845326e-01 0.0000000000000000e+00  5.7403049946419239e-02 -6.8082960801147216e-02 0.0000000000000000e+00  1.2713843660995883e-03 -5.9462339011118734e-02 0.0000000000000000e+00  1.1302150586355773e-02 1.1829769747896607e-01 0.0000000000000000e+00  -3.7556875018072908e-02 -5.6815247587718956e-02 0.0000000000000000e+00  -3.0491548860833766e-02 -5.8420995377047383e-02 0.0000000000000000e+00  3.9768990661611901e-03 -1.0131421786224663e-01 0.0000000000000000e+00  1.1250123377166193e-01 -3.1135595809123159e-02 0.0000000000000000e+00  1.1913864150297254e-01 -9.1413145382510316e-03 0.0000000000000000e+00  9.0487027830128811e-02 -5.0741154986246401e-02 0.0000000000000000e