<?xml version="1.0"?>
<VTKFile type="UnstructuredGrid"  version="0.1"  >
<UnstructuredGrid>
<Piece  NumberOfPoints="1235" NumberOfCells="2353">
<Points>
<DataArray  type="Float64"  NumberOfComponents="3"  format="ascii">-1.007001141382261 0.2063641902105539 0  -0.999923948260405 0.09409440996970621 0  -0.9796252507432771 -0.01728375242223964 0  -0.9463378044043446 -0.1259931142672243 0  -0.9009361949004088 -0.2294740466347035 0  -0.8436027942507798 -0.3281041939519911 0  -0.7756442151147395 -0.4187379868577906 0  -0.6981540828082216 -0.501181020368148 0  -0.6153358219833619 -0.5717606874797846 0  -0.5311710777883241 -0.6295679585335063 0  -0.4444417223150208 -0.6771036493323991 0  -0.3547934395923745 -0.7155606391843231 0  -0.2635088357446481 -0.7448918756683532 0  -0.1713140761822793 -0.7652576518111868 0  -0.08087133981362961 -0.7765782107077969 0  0.006212834550231154 -0.7797226041388275 0  0.09267874774544101 -0.7750919696634678 0  0.1834793847021271 -0.7621193266558937 0  0.2757605060161489 -0.7400668841931556 0  0.366226326758101 -0.7091644728889959 0  0.454105525810076 -0.6695458322335169 0  0.540689199056036 -0.6199595966980905 0  0.6239200743925847 -0.5606721118557229 0  0.7040425722963961 -0.4900809157023968 0  0.7795851858117477 -0.4076199888745943 0  0.8465455796164462 -0.3154093027255296 0  0.9023160389562463 -0.2165939284019789 0  0.9463037231226795 -0.112136202482649 0  0.9778876664165577 -0.003806768068246422 0  0.9968507891751822 0.1082390643277829 0  1.00268756693674 0.2204797550270823 0  0.9954704829503407 0.3327268620701216 0  0.9752207822916839 0.4436811261387348 0  0.9426888264034134 0.5505421898087368 0  0.8985110075928492 0.6526027248261043 0  0.8425015620142851 0.7498526834870695 0  0.7765396676755845 0.8394477899377809 0  0.7006183731078366 0.9211805051016652 0  0.6156842666488016 0.9941445072808974 0  0.5235550219641496 1.056822198804022 0  0.4245628597258964 1.109230109206895 0  0.3204878394446214 1.150283356994159 0  0.2125094345900818 1.179897780727527 0  0.1020607234854607 1.197401968494012 0  -0.009375758036890041 1.202747695253694 0  -0.1209834271881704 1.195657175065612 0  -0.2313380764483846 1.176431729058024 0  -0.3388744153458739 1.145151099177279 0  -0.4421069727770608 1.102283942741074 0  -0.5402267617497315 1.048346913260628 0  -0.6313342875020246 0.9842050636112293 0  -0.7146891213198349 0.91042659957818 0  -0.7893290448070666 0.8277538880702202 0  -0.8547997908956162 0.7363610359481167 0  -0.9089615234397963 0.6391767589941358 0  -0.9519098958771345 0.535841994220419 0  -0.9828874763319361 0.4281937181739877 0  -1.001183232912053 0.3178790676034015 0  2.520719505249108 0.0003274252771465166 0  2.512554368420965 0.2028325696059419 0  2.488130927665148 0.4040281578698957 0  2.447436798231117 0.6032387014718302 0  2.390868959870381 0.7986002235102861 0  2.319161413692154 0.9876786585064911 0  2.231835636358893 1.171726651333217 0  2.130522290415905 1.347209655121393 0  2.015180051882091 1.514316149659341 0  1.886803548332018 1.671551332746803 0  1.746146277028802 1.817987634075702 0  1.594471474537541 1.952358914270992 0  1.431617348555642 2.074730734858877 0  1.260698880698943 2.182814136846947 0  1.080601411832262 2.277314815008702 0  0.893497635294773 2.357054648325867 0  0.7016779610905082 2.421092813057489 0  0.5038946614925325 2.469849184103378 0  0.3038413913820349 2.50235519617988 0  0.1018206389475145 2.518669502960912 0  -0.1018225653048789 2.518667676292636 0  -0.3038018830301668 2.502363468056976 0  -0.5042142222396797 2.469796780558865 0  -0.7013515557420592 2.421201354016668 0  -0.8935534087818533 2.357035630280259 0  -1.080598036450276 2.277320486000563 0  -1.260347254838717 2.182980258303739 0  -1.431922528309518 2.074492225479262 0  -1.594204112340578 1.952546126675435 0  -1.746146891368162 1.817920867713311 0  -1.887006445412856 1.671302968283292 0  -2.015182461904543 1.514309064358276 0  -2.130316700689542 1.347513601500359 0  -2.231955458427637 1.171417840525304 0  -2.319163238841305 0.9876754389084472 0  -2.390869974287172 0.7985974376312266 0  -2.447561368075254 0.6028760161326199 0  -2.488013661978264 0.4047293839225194 0  -2.512574413440016 0.2024530245191454 0  -2.520717495494805 0.0003805895114689315 0  -2.512506551154945 -0.2032150843343538 0  -2.488138093245328 -0.4039757363766143 0  -2.447376928489862 -0.6036219175351706 0  -2.391111745062038 -0.7978679257646368 0  -2.318858339623311 -0.9883881051018163 0  -2.232163316890025 -1.171095488675194 0  -2.130278456969633 -1.347564250743517 0  -2.015403433029392 -1.513991744867563 0  -1.886571234422957 -1.671790468566353 0  -1.746206476735442 -1.817927445019534 0  -1.594190856470591 -1.952601741777248 0  -1.432204819290547 -2.074326444239033 0  -1.260029928866823 -2.18319781905326 0  -1.080961628394409 -2.277181885431839 0  -0.8935606570874225 -2.357032225422854 0  -0.7013104227095428 -2.421209580804065 0  -0.5045295411139816 -2.469716151512949 0  -0.3038393750977696 -2.502321687962092 0  -0.1011770250562904 -2.518692800501945 0  0.1015002245698604 -2.51868788754243 0  0.3035190916700167 -2.502384070166004 0  0.5045263654910805 -2.469718761675668 0  0.7013110475384896 -2.421209917371387 0  0.8935601958661312 -2.357031274813895 0  1.080600763080875 -2.277313566147331 0  1.260698877114813 -2.182812074036515 0  1.431613858580177 -2.074732248579178 0  1.594469537692453 -1.952358974092739 0  1.746145704251055 -1.817986718678467 0  1.886800217737564 -1.671552301675798 0  2.015180284350265 -1.514316813112362 0  2.130519972910691 -1.347209183406676 0  2.231833828451129 -1.171728992742308 0  2.318985342401843 -0.9880332328059648 0  2.390971650778296 -0.7982222715194049 0  2.447447272590418 -0.603243797381438 0  2.488041244412691 -0.4043460618830105 0  2.512510933831968 -0.2028239359067331 0  -0.002910095770137816 0.2222919966826621 0  0.1114833334238024 -1.64811512680278 0  -0.7682375359246001 -1.482580235614512 0  0.9028722400210736 -1.408483384657763 0  -1.393519410172236 -0.9741226733365875 0  1.535503542561359 -0.7510789476360757 0  -1.729946900405429 -0.2258712612696859 0  1.751977306336781 -0.03779994236230141 0  -1.70675352210438 0.5345223360519517 0  1.636318895833595 0.7567523541454247 0  -1.374637448846537 1.202306889486843 0  1.229148276491266 1.364864700308125 0  -0.8062437950582561 1.66594665815051 0  0.6133168823264513 1.752106452516363 0  -0.1065518366337923 1.8577461248517 0  0.6235062082898655 -1.875965558727458 0  0.505157409278895 0.257512768812494 0  -0.5110285818813457 0.1948869705790471 0  -0.3959590255536591 -1.906629561850045 0  0.2681206665565421 -0.1861619783532758 0  -0.2312906093458885 -0.2101915707762246 0  -0.267542211031667 0.6401307784521796 0  1.461589064770038 -1.301069112184014 0  -1.322418530533625 -1.495908897529084 0  -1.86276296101226 -0.7251106112693972 0  -0.264591004740063 -1.294172626857417 0  0.4039173595433616 -1.245386498893819 0  1.98483092512352 0.4102802735931878 0  1.029221756403023 -0.915747905261397 0  1.962796811937661 -0.4810234748802724 0  -0.7692958556974309 -1.032726655251633 0  -2.054202672283981 0.2380340341114907 0  0.2302010668146912 0.6708325462410567 0  -1.797038740456847 1.022502084680033 0  0.2415840609773136 -2.074269818129661 0  -1.309730027642935 -0.5030846936360478 0  1.045954420180661 -1.816551184997696 0  -0.8321419657437353 -1.920054406691528 0  -1.259897302058552 1.649975524330996 0  1.81427260776938 -1.07332232031247 0  1.363906709676494 -0.3258696930009948 0  1.661544124273336 1.222394381159366 0  -0.5242214628719553 2.016914565187062 0  -1.788684870525449 -1.122851124201563 0  1.549759150014639 0.3303839034963835 0  -1.450483545305913 0.1511721028092412 0  1.05895671441932 1.785646842963083 0  0.2899012610906797 2.062101319104975 0  -1.319969992817423 0.7652086165197102 0  1.240000227188973 0.9230899086452538 0  2.133978287897037 -0.1356006783486098 0  -2.091744508918767 -0.4028882882366487 0  -1.044835132544014 -0.7770500895487383 0  -0.9442000449711626 1.261956955459019 0  0.8076593032282149 1.370019997080041 0  0.2237452036017508 1.5960072629138 0  -0.3977252816055525 1.555034864967209 0  -2.075599141867893 0.6063430501341258 0  0.6579607638897152 -1.002976042900377 0  2.009925818538389 0.782424522808651 0  0.05857216096290357 -1.15135954729361 0  -1.69521808629039 1.367600749634802 0  -1.040906781095711 -1.270764283327636 0  1.101588422904015 -0.578547847569936 0  -1.041803161229238 1.921595283977201 0  1.386039772727236 1.680382722836567 0  1.342265614955014 0.0226827161781249 0  -1.378166855861684 -0.1790401980860144 0  -0.1757946877702782 -2.179209190629389 0  1.303781190183436 0.5742747446822307 0  -0.1779748133302832 2.191959043386383 0  0.6270247973887043 2.094524409144286 0  1.377890064796366 -1.657971578462753 0  0.5921961133284304 -0.08534884384959686 0  0.02401198954591317 -0.4160038227881444 0  0.5952011261860939 -1.534916120285882 0  -1.178158863126125 -1.823531264490996 0  -0.5592045328975337 -0.1597650997963398 0  -0.5951838565636909 0.5223305637150657 0  -2.037315455469785 -0.08576563648814368 0  -0.03300102273771323 0.8780359210992039 0  -1.39047330268593 0.4572864259130293 0  0.5555699910310691 0.6102027495109478 0  2.029935655474221 -0.8113369118578022 0  -1.124561051557649 1.005933569807209 0  0.4917354788050551 1.418567391909755 0  0.9709878691220161 1.091785839206552 0  -0.08271286655134287 1.507773099246881 0  -0.6397099105424701 1.346639688510885 0  -0.456357409068925 -1.577018707804787 0  0.5321668429213788 -2.168643011325638 0  -1.512905248948123 -1.258895057164278 0  -0.6111272669275862 -2.130934833410885 0  1.644304650012563 -0.4707215150911999 0  -0.4372764184678258 -1.043692631762797 0  -0.01556750817034867 -1.923857758510181 0  1.758484886293874 -1.365425308340833 0  -1.748289891181134 0.2412793744734244 0  -1.617337613344138 -1.553213713782688 0  -0.179477740185296 -1.669201585380596 0  1.93735098108169 1.08604642246989 0  -1.633430526877522 -0.5131012587147507 0  2.196287364406948 0.176697745378663
[...]
<PointData  Vectors="f_3863-0"> 
<DataArray  type="Float64"  Name="f_3863-0"  NumberOfComponents="3" format="ascii">1.1190669174253961e-02 -8.3469938555590165e-02 0.0000000000000000e+00  2.8282606950282285e-02 -9.3723946546586820e-02 0.0000000000000000e+00  4.8169644062334115e-02 -1.0279062971597888e-01 0.0000000000000000e+00  7.0925365969933318e-02 -1.1044087363040768e-01 0.0000000000000000e+00  9.4762696873483349e-02 -1.1396796039458530e-01 0.0000000000000000e+00  1.2123775435211519e-01 -1.1526043547230017e-01 0.0000000000000000e+00  1.4674741363183663e-01 -1.1026371004466726e-01 0.0000000000000000e+00  1.7027653354477262e-01 -9.9743900118247575e-02 0.0000000000000000e+00  1.8154539836748204e-01 -7.8911255013757259e-02 0.0000000000000000e+00  1.7658022776764404e-01 -5.0566808395834120e-02 0.0000000000000000e+00  1.6350331820830766e-01 -2.3250222934438135e-02 0.0000000000000000e+00  1.4468642148430694e-01 6.8396637659131731e-04 0.0000000000000000e+00  1.2035128390321879e-01 2.0936426791036144e-02 0.0000000000000000e+00  9.0091057992072635e-02 3.7311065782945858e-02 0.0000000000000000e+00  5.0211246225565678e-02 4.8165854814315824e-02 0.0000000000000000e+00  4.8837912601395821e-04 5.1838062382354576e-02 0.0000000000000000e+00  -4.8682849147335713e-02 4.7481918920213723e-02 0.0000000000000000e+00  -8.8221512277660397e-02 3.6185582519103206e-02 0.0000000000000000e+00  -1.1731444887675363e-01 2.0007780145736613e-02 0.0000000000000000e+00  -1.4149548565394093e-01 -6.7107317131248308e-04 0.0000000000000000e+00  -1.6066304429983511e-01 -2.5225579287110726e-02 0.0000000000000000e+00  -1.7267776627592341e-01 -5.2041493420878361e-02 0.0000000000000000e+00  -1.7693486823622526e-01 -7.9325237485262712e-02 0.0000000000000000e+00  -1.6967185568161433e-01 -1.0274053567116925e-01 0.0000000000000000e+00  -1.4868180013960575e-01 -1.1557921274786057e-01 0.0000000000000000e+00  -1.2214820933214295e-01 -1.1946562570806735e-01 0.0000000000000000e+00  -9.6121325350905229e-02 -1.1829484745564012e-01 0.0000000000000000e+00  -7.1352370715646610e-02 -1.1383596729267213e-01 0.0000000000000000e+00  -4.9021687961324945e-02 -1.0782871267671376e-01 0.0000000000000000e+00  -2.8721291562379170e-02 -9.7501241145008383e-02 0.0000000000000000e+00  -1.1665595628869332e-02 -8.7595569606643553e-02 0.0000000000000000e+00  3.0161016009565920e-03 -7.5753178523858780e-02 0.0000000000000000e+00  1.4974228673556982e-02 -6.2079115964990036e-02 0.0000000000000000e+00  2.4611512285118653e-02 -4.9793076089482455e-02 0.0000000000000000e+00  3.2489889498078302e-02 -3.8215023131410161e-02 0.0000000000000000e+00  3.6919686211143152e-02 -2.4203337163186227e-02 0.0000000000000000e+00  4.0191177427252152e-02 -1.2571380733334267e-02 0.0000000000000000e+00  4.0795750770700995e-02 -6.5377320414030488e-04 0.0000000000000000e+00  3.8794697612469183e-02 1.0833748279800151e-02 0.0000000000000000e+00  3.5815984443958011e-02 2.0406325091414726e-02 0.0000000000000000e+00  3.0278867525776743e-02 2.9167715626359808e-02 0.0000000000000000e+00  2.3896102650538178e-02 3.5979414984435909e-02 0.0000000000000000e+00  1.6119384967740187e-02 4.1106673780322449e-02 0.0000000000000000e+00  7.6714048198843546e-03 4.4216651749219578e-02 0.0000000000000000e+00  -8.1356411855466849e-04 4.5209537065588883e-02 0.0000000000000000e+00  -9.3745239404908875e-03 4.4198350626719188e-02 0.0000000000000000e+00  -1.7764188399330163e-02 4.1118315412682828e-02 0.0000000000000000e+00  -2.5345516294173254e-02 3.6019970550919669e-02 0.0000000000000000e+00  -3.1824739055352019e-02 2.9121236028097335e-02 0.0000000000000000e+00  -3.7535230603502459e-02 2.0218246372685881e-02 0.0000000000000000e+00  -4.0404696844960064e-02 1.0665577511311126e-02 0.0000000000000000e+00  -4.1388764289768828e-02 1.1713121197903413e-04 0.0000000000000000e+00  -4.0389724443048718e-02 -1.1083633908369162e-02 0.0000000000000000e+00  -3.8485652079166155e-02 -2.4868568640667957e-02 0.0000000000000000e+00  -3.2741369826920559e-02 -3.6487365508798768e-02 0.0000000000000000e+00  -2.5444247538902322e-02 -4.9464891740808474e-02 0.0000000000000000e+00  -1.5781938849713663e-02 -6.2155971465493627e-02 0.0000000000000000e+00  -3.4750729467910709e-03 -7.3544122694756464e-02 0.0000000000000000e+00  1.3612544529307885e-01 9.7318434449905362e-04 0.0000000000000000e+00  1.3570723049226699e-01 1.0949914420286375e-02 0.0000000000000000e+00  1.3452286511215633e-01 2.0875346706942480e-02 0.0000000000000000e+00  1.3207235566023964e-01 3.2551291453870118e-02 0.0000000000000000e+00  1.2874841451982677e-01 4.4198120704442539e-02 0.0000000000000000e+00  1.2567894482101741e-01 5.2294648183704245e-02 0.0000000000000000e+00  1.2008629148106408e-01 6.4118918157800187e-02 0.0000000000000000e+00  1.1515195223515504e-01 7.2669098895785211e-02 0.0000000000000000e+00  1.0884978397504055e-01 8.1812941411133988e-02 0.0000000000000000e+00  1.0194098872013031e-01 9.0281800345036994e-02 0.0000000000000000e+00  9.4244105437413558e-02 9.8284338254072720e-02 0.0000000000000000e+00  8.6843748125865830e-02 1.0484132378311942e-01 0.0000000000000000e+00  7.6397381860920641e-02 1.1267581182536177e-01 0.0000000000000000e+00  6.9065500890226020e-02 1.1731551659564446e-01 0.0000000000000000e+00  5.8320265386755735e-02 1.2289898375650490e-01 0.0000000000000000e+00  4.7200349560727682e-02 1.2769455205496469e-01 0.0000000000000000e+00  3.8964815932630431e-02 1.3044197651268266e-01 0.0000000000000000e+00  2.6296497543244337e-02 1.3358553357691938e-01 0.0000000000000000e+00  1.6414076240735601e-02 1.3517190004753921e-01 0.0000000000000000e+00  6.4349564455666941e-03 1.3599628301554242e-01 0.0000000000000000e+00  -6.4390264255262996e-03 1.3599115061946682e-01 0.0000000000000000e+00  -1.6298417421741478e-02 1.3519621212057512e-01 0.0000000000000000e+00  -2.7244440801219124e-02 1.3342791973771065e-01 0.0000000000000000e+00  -3.7998554853125519e-02 1.3076109933039554e-01 0.0000000000000000e+00  -4.7362966363773185e-02 1.2763956797431789e-01 0.0000000000000000e+00  -5.8310631004676872e-02 1.2291472014240486e-01 0.0000000000000000e+00  -6.8026955698725397e-02 1.1781416046356190e-01 0.0000000000000000e+00  -7.7306167497180361e-02 1.1197279558181497e-01 0.0000000000000000e+00  -8.6052414799681190e-02 1.0540184727021833e-01 0.0000000000000000e+00  -9.4251629937904646e-02 9.8094360938014533e-02 0.0000000000000000e+00  -1.0254558893371025e-01 8.9545557018701982e-02 0.0000000000000000e+00  -1.0885549551172022e-01 8.1792671897279401e-02 0.0000000000000000e+00  -1.1454535026148850e-01 7.3570402087927353e-02 0.0000000000000000e+00  -1.2044662769344888e-01 6.3209592074258636e-02 0.0000000000000000e+00  -1.2568484244883263e-01 5.2284160148262343e-02 0.0000000000000000e+00  -1.2875142269674641e-01 4.4189046994897049e-02 0.0000000000000000e+00  -1.3243347295778629e-01 3.1477512529312524e-02 0.0000000000000000e+00  -1.3417504306183986e-01 2.2952680890301714e-02 0.0000000000000000e+00  -1.3576854982844180e-01 9.8276997947967341e-03 0.0000000000000000e+00  -1.3611903834120276e-01 1.1264077318969398e-03 0.0000000000000000e+00  -1.3556922757924122e-01 -1.2080601874067889e-02 0.0000000000000000e+00  -1.3454297590187711e-01 -2.0723597431430468e-02 0.0000000000000000e+00  -1.3188885187668062e-01 -3.3681832274443983e-02 0.0000000000000000e+00  -1.2946716496286023e-01 -4.2032255457521740e-02 0.0000000000000000e+00  -1.2478339891135597e-01 -5.4392356523765020e-02 0.0000000000000000e+00  -1.2105642524646221e-01 -6.2250937214007998e-02 0.0000000000000000e+00  -1.1443470692134899e-01 -7.3717333577148811e-02 0.0000000000000000e+00  -1.0951088413896534e-01 -8.0856976828556776e-02 0.0000000000000000e+00  -1.0125605268812179e-01 -9.0990961780320748e-02 0.0000000000000000e+00  -9.4419407576890380e-02 -9.8109856636321865e-02 0.0000000000000000e+00  -8.6013537339976492e-02 -1.0555723472729076e-01 0.0000000000000000e+00  -7.8135272233879144e-02 -1.1148060276800270e-01 0.0000000000000000e+00  -6.7087003893061090e-02 -1.1845068736587493e-01 0.0000000000000000e+00  -5.9383417761828039e-02 -1.2249860380257285e-01 0.0000000000000000e+00  -4.7383552793795698e-02 -1.2762976801301612e-01 0.0000000000000000e+00  -3.7877927143320958e-02 -1.3078496787762581e-01 0.0000000000000000e+00  -2.8178410386023377e-02 -1.3319142535197015e-01 0.0000000000000000e+00  -1.6411452930973146e-02 -1.3507943760697677e-01 0.0000000000000000e+00  -4.5247442300835519e-03 -1.3606556582669660e-01 0.0000000000000000e+00  5.4840417002409271e-03 -1.3604830594374434e-01 0.0000000000000000e+00  1.5458724161878786e-02 -1.3526001266082330e-01 0.0000000000000000e+00  2.8169851319265183e-02 -1.3319871096942390e-01 0.0000000000000000e+00  3.7880398229139550e-02 -1.3078566799878560e-01 0.0000000000000000e+00  4.7381510176325407e-02 -1.2762742367362595e-01 0.0000000000000000e+00  5.8318215948054038e-02 -1.2289539601698544e-01 0.0000000000000000e+00  6.9064926640009600e-02 -1.1731007769684769e-01 0.0000000000000000e+00  7.6387239165288265e-02 -1.1268036722546741e-01 0.0000000000000000e+00  8.6838265117746755e-02 -1.0484187726468649e-01 0.0000000000000000e+00  9.4242640292806296e-02 -9.8281971418896344e-02 0.0000000000000000e+00  1.0193143615230985e-01 -9.0285226366556351e-02 0.0000000000000000e+00  1.0885078969445230e-01 -8.1814999095250862e-02 0.0000000000000000e+00  1.1514576967116547e-01 -7.2668009161456895e-02 0.0000000000000000e+00  1.2008210753038315e-01 -6.4124659112513235e-02 0.0000000000000000e+00  1.2516219622447008e-01 -5.3348253953979650e-02 0.0000000000000000e+00  1.2905835600435214e-01 -4.3079139146015050e-02 0.0000000000000000e+00  1.3210088916468971e-01 -3.2569946075592382e-02 0.0000000000000000e+00  1.3426427513550349e-01 -2.1819395060600183e-02 0.0000000000000000e+00  1.3558807347834653e-01 -1.0926518125062120e-02 0.0000000000000000e+00  -2.2683498968443009e-03 7.3362628900357246e-02 0.0000000000000000e+00  -2.9258656459522597e-03 -4.5501315399003622e-02 0.0000000000000000e+00  -3.0890282056156306e-03 -6.4844469718059253e-02 0.0000000000000000e+00  8.9362833385441768e-03 -6.7712906478735554e-02 0.0000000000000000e+00  -2.9275191345137230e-02 -5.6436683412176759e-02 0.0000000000000000e+00  3.4663114160899518e-02 -5.1740707702353332e-02 0.0000000000000000e+00  -5.0202525663553155e-02 -5.0355458345117898e-02 0.0000000000000000e+00  5.6461864006747978e-02 -4.6120964965504108e-02 0.0000000000000000e+00  -7.9652730077305417e-02 -2.7984141874017057e-02 0.0000000000000000e+00  8.5467673650650278e-02 -1.4725487561072956e-02 0.0000000000000000e+00  -9.0200430355263386e-02 1.9299614056504790e-02 0.0000000000000000e+00  8.6321909084521420e-02 3.3427188868551311e-02 0.0000000000000000e+00  -6.3696296832410362e-02 6.8594964142657464e-02 0.0000000000000000e+00  5.1560529023840021e-02 7.8625545913429878e-02 0.0000000000000000e+00  -8.2872301339971342e-03 9.2430504933502092e-02 0.0000000000000000e+00  2.2701552599699797e-02 -9.6108073661801546e-02 0.0000000000000000e+00  1.2538696540180251e-02 2.0480363466280325e-02 0.0000000000000000e+00  -9.8052045522118454e-03 1.7999139468074458e-02 0.0000000000000000e+00  -1.2939930141781488e-02 -9.2417081215224586e-02 0.0000000000000000e+00  -5.3052424330035923e-02 7.3982660423560623e-02 0.0000000000000000e+00  4.9540137406389774e-02 7.8624967700764214e-02 0.0000000000000000e+00  -1.8643257834926503e-02 5.4204223470324164e-02 0.0000000000000000e+00  6.6162199222217138e-02 -7.1274358206424887e-02 0.0000000000000000e+00  -6.1773434158273376e-02 -8.1461665311217832e-02 0.0000000000000000e+00  -8.4336141556841382e-02 -5.1260815636163963e-02 0.0000000000000000e+00  3.8159949842988206e-02 -8.9602576391512208e-03 0.0000000000000000e+00  -4.9984963304779063e-02 -2.4346519468828140e-02 0.0000000000000000e+00  1.0604090509793099e-01 -1.3025469233764863e-02 0.0000000000000000e+00  -3.2222334263187949e-02 -5.9514720300270815e-02 0.0000000000000000e+00  9.1966876002899850e-02 -4.2581354579696321e-02 0.0000000000000000e+00  5.7115047291834531e-02 -6.0035021208536724e-02 0.0000000000000000e+00  -1.0906162412371241e-01 -1.8249910539761608e-02 0.0000000000000000e+00  1.4613450772689072e-02 5.5822138881066116e-02 0.0000000000000000e+00  -1.1185027377258767e-01 2.2428066483720869e-02 0.0000000000000000e+00  9.8158700450043396e-03 -1.0997209218597852e-01 0.0000000000000000e+00  3.0482567610917697e-02 -6.2386903452487243e-02 0.0000000000000000e+00  5.1874027471991817e-02 -1.0127690784336441e-01 0.0000000000000000e+00  -4.0156342297151960e-02 -1.0529290424429796e-01 0.0000000000000000e+00  -9.0761841237146132e-02 7.1759149241472545e-02 0.0000000000000000e+00  9.4028184043351559e-02 -6.1977902949598852e-02 0.0000000000000000e+00  -2.4476232421301463e-02 -6.6664557399872676e-02 0.0000000000000000e+00  1.0788929676853702e-01 3.5731563350986872e-02 0.0000000000000000e+00  -4.0598188994826839e-02 1.0804134453853870e-01 0.0000000000000000e+00  -9.2329180013874662e-02 -6.5079013001621555e-02 0.0000000000000000e+00  4.4988831623056773e-02 -5.1366711417770085e-02 0.0000000000000000e+00  -1.7076262794518130e-02 -6.6522657779063701e-02 0.0000000000000000e+00  7.9865579959065333e-02 8.3607293861527779e-02 0.0000000000000000e+00  2.3796806031261494e-02 1.1274314847041039e-01 0.0000000000000000e+00  -5.8954485045093812e-02 -3.2907961242270176e-02 0.0000000000000000e+00  6.3963298563608065e-02 -1.9958099697662796e-02 0.0000000000000000e+00  1.1257194238353925e-01 -2.7150606390642578e-02 0.0000000000000000e+00  -1.0797463702741855e-01 -3.8599424345623246e-02 0.0000000000000000e+00  5.5381431432809589e-02 -5.9971840292894041e-02 0.0000000000000000e+00  -6.5014757070858659e-02 1.8618439625053274e-02 0.0000000000000000e+00  6.1264198752822595e-02 3.1454388281311807e-02 0.0000000000000000e+00  1.9977080063879552e-02 6.5496339430925574e-02 0.0000000000000000e+00  -3.2128093728897210e-02 5.9624969834553641e-02 0.0000000000000000e+00  -1.2070452538089783e-01 6.2326369351815413e-03 0.0000000000000000e+00  -7.6077773870481508e-02 -6.2982620196120498e-02 0.0000000000000000e+00  1.1957269608387128e-01 1.6056446011047394e-02 0.0000000000000000e+00  -1.5017545926909669e-02 2.5030057479478569e-02 0.0000000000000000e+00  -1.1132399058371084e-01 5.4354821402043355e-02 0.0000000000000000e+00  -1.0487570649669887e-02 -6.3833811518667682e-02 0.0000000000000000e+00  -7.0551691100146752e-02 -6.9277908203424346e-02 0.0000000000000000e+00  -7.4983181722995021e-02 9.9203327051646237e-02 0.0000000000000000e+00  9.6569834356893910e-02 7.7680249035359736e-02 0.0000000000000000e+00  -1.2222441294643187e-02 -7.7175414947429355e-02 0.0000000000000000e+00  1.7305918395885803e-02 -7.2370806947098063e-02 0.0000000000000000e+00  -8.9792850028708234e-03 -1.2032933879059249e-01 0.0000000000000000e+00  3.8931236943725807e-02 -5.2375623490392008e-02 0.0000000000000000e+00  -1.2870304628682966e-02 1.2401689289850129e-01 0.0000000000000000e+00  4.7491522029710298e-02 1.1479185745181170e-01 0.0000000000000000e+00  7.4491987085378353e-02 -9.3509138119528254e-02 0.0000000000000000e+00  -3.3995440461326347e-02 -1.9868799644141507e-02 0.0000000000000000e+00  -1.6144559575570740e-02 9.4587866453912983e-02 0.0000000000000000e+00  -5.1929288103034757e-03 -5.8940218269927729e-02 0.0000000000000000e+00  -6.3277757933923595e-02 -1.0278514162876753e-01 0.0000000000000000e+00  4.6152782119489949e-02 -1.4261713628139513e-02 0.0000000000000000e+00  -2.8908232268494601e-02 9.6556185589760247e-03 0.0000000000000000e+00  -1.0086348005255599e-01 -3.2087674027543540e-02 0.0000000000000000e+00  -2.9355757433717385e-03 5.7028004463869651e-02 0.0000000000000000e+00  -3.7100585214224026e-02 -5.6308301981598086e-02 0.0000000000000000e+00  2.9430498119707056e-02 1.6216918280678932e-02 0.0000000000000000e+00  1.0854640592379435e-01 -5.0861019111133124e-02 0.0000000000000000e+00  -6.4067167420448226e-02 -1.0500830604449767e-02 0.0000000000000000e+00  3.9978424397359991e-02 4.3583128529421568e-02 0.0000000000000000e+00  5.8213891433575929e-02 -3.5087211680453643e-03 0.0000000000000000e+00  -5.6955846573312980e-03 5.7346158312742562e-02 0.0000000000000000e+00  -4.8973547943787998e-02 3.3506399330434582e-02 0.0000000000000000e+00  6.7841162282910117e-03 -5.3358763438796621e-02 0.0000000000000000e+00  2.7094800708341100e-02 -1.2208733156435077e-01 0.0000000000000000e+00  -6.8234708904088975e-02 -6.9456837682264863e-02 0.0000000000000000e+00  -3.1901034081145398e-02 -1.1974413813425004e-01 0.0000000000000000e+00  3.7727498307032002e-02 -5.0403559354287114e-02 0.0000000000000000e+00  8.6906618746608821e-02 -3.7928651117324443e-02 0.0000000000000000e+00  -9.3014359083435662e-04 -8.8488135364157755e-02 0.0000000000000000e+00  9.8103075410687149e-02 -7.6909500068475370e-02 0.0000000000000000e+00  -6.7988807261441894e-02 -4.0530309502465188e-02 0.0000000000000000e+00  -9.0595930151067400e-02 -8.7632099634430666e-02 0.0000000000000000e+00  2.5906672954932666e-03 -5.1009404726038286e-02 0.0000000000000000e+00  1.2004592362839779e-01 3.8812139034789431e-02 0.0000000000000000e+00  -3.6865054323206518e-02 -5.2499295585382362e-02 0.0000000000000000e+00  1.2231299181172502e-01 -1.0521989303573464e-02 0.0000000000000000e+00  4.6769039814771138e-02 -1.1728939565615824e-01 0.0000000000000000e+00  2.7402793301004254e-02 -5.6968166022551552e-02 0.0000000000000000e+00  1.6154812391131691e-02 -6.3803432483904937e-02 0.0000000000000000e+00  1.3525185712699942e-03 -6.6647022683177223e-02 0.0000000000000000e+00  5.7709929570328089e-03 -7.6084784344067610e-02 0.0000000000000000e+00  -1.1132314898603259e-01 -5.7992825824994924e-02 0.0000000000000000e+00  -6.6527396057044792e-03 8.2064629538241340e-02 0.0000000000000000e+00  -3.6685882238009948e-02 -7.9768578282842589e-02 0.0000000000000000e+00  5.5721154996821502e-02 1.4988550219665879e-02 0.0000000000000000e+00  4.0160423856350727e-02 -4.8379693481899640e-02 0.0000000000000000e+00  1.0760662851821218e-01 6.8514683734941587e-02 0.0000000000000000e+00  -1.2457909845049887e-01 3.5091535226116848e-02 0.0000000000000000e+00  -1.2690728974474683e-01 -1.2283191342561617e-02 0.0000000000000000e+00  -1.1662481177486762e-01 -4.5489838634107237e-02 0.0000000000000000e+00  4.0827352928666681e-03 -4.6465907895039378e-03 0.0000000000000000e+00  -4.3333977869423529e-02 -5.3335643418173158e-02 0.0000000000000000e+00  -8.6241313256100349e-02 -1.3484227809219602e-02 0.0000000000000000e+00  -1.4312925451570417e-04 -4.5341013864851724e-02 0.0000000000000000e+00  -1.0001222336728980e-02 -3.6328667387873097e-02 0.0000000000000000e+00  6.4234048815412781e-02 9.6759800910905580e-02 0.0000000000000000e+00  1.2283010825676535e-01 -3.4253377931944960e-02 0.0000000000000000e+00  9.0381591419056412e-02 8.3310566454011317e-02 0.0000000000000000e+00  -5.9414195598664621e-02 9.9484917015868035e-02 0.0000000000000000e+00  4.5972773638089430e-02 -8.3667259678976827e-02 0.0000000000000000e+00  -1.1303027324922162e-01 6.4811761908016116e-02 0.0000000000000000e+00  -9.9737249643229761e-02 8.3848480262012651e-02 0.0000000000000000e+00  -1.0682269515869765e-01 -7.5449462285843275e-02 0.0000000000000000e+00  1.0147686613826326e-02 6.1713264438705617e-02 0.0000000000000000e+00  -7.6972918015369204e-03 6.0713997681120763e-02 0.0000000000000000e+00  -2.0235248898073078e-03 6.9681851027099409e-02 0.0000000000000000e+00  2.5050369886133742e-02 -8.4853472649205133e-02 0.0000000000000000e+00  9.9044304086720505e-02 -8.0040226931866271e-02 0.0000000000000000e+00  -3.1941122482876894e-02 2.8194075878944180e-02 0.0000000000000000e+00  -8.5297231719716149e-02 -1.4214392861740911e-02 0.0000000000000000e+00  -8.0545683156522344e-02 -9.8719525212093845e-02 0.0000000000000000e+00  -1.3377422425852957e-02 5.9818975748413085e-02 0.0000000000000000e+00  6.5010197548185482e-03 5.9621841325080742e-02 0.0000000000000000e+00  -3.0596437953043669e-02 -5.1727236716517494e-02 0.0000000000000000e+00  -1.8971571011403236e-02 -2.6563942627608677e-02 0.0000000000000000e+00  -1.0865180916683653e-01 3.2148868941292950e-03 0.0000000000000000e+00  7.3442555812998203e-02 -4.9142317152748111e-