<?xml version="1.0"?>
<VTKFile type="UnstructuredGrid"  version="0.1"  >
<UnstructuredGrid>
<Piece  NumberOfPoints="1500" NumberOfCells="2830">
<Points>
<DataArray  type="Float64"  NumberOfComponents="3"  format="ascii">-0.992263528581579 0.3219243049724703 0  -0.9917309506209677 0.2141742876364175 0  -0.9791991912577103 0.1070842079929051 0  -0.9550321517426343 0.001963820034477336 0  -0.9193286278436817 -0.1001774248430563 0  -0.8725855401393759 -0.1978368247566977 0  -0.8154951218679019 -0.2896297196261386 0  -0.7487151062873255 -0.3747958602955937 0  -0.6733677870366134 -0.4515831138609231 0  -0.5911202704840186 -0.5192089374623794 0  -0.5033086182244689 -0.5770913286459102 0  -0.410750980668597 -0.6249066874467952 0  -0.3138800112087479 -0.6627409215321384 0  -0.2140343328010315 -0.6902529912049897 0  -0.1121234852839547 -0.7074207472947194 0  -0.01051317364266552 -0.7137566680995678 0  0.08989396284756974 -0.7090260807979857 0  0.1917001549220356 -0.6930736646518395 0  0.2923375942339723 -0.6664821420563595 0  0.389635064631518 -0.6297080852698224 0  0.4826519985533834 -0.5830859673702332 0  0.5705395271105717 -0.5269890580672244 0  0.6530628134600515 -0.4612386431042327 0  0.7290911337888931 -0.3860554943016534 0  0.7969613944792118 -0.302602593267408 0  0.8556418326757396 -0.2120451253318734 0  0.9042291356098813 -0.1152926247628772 0  0.9418438234744665 -0.01376432762328855 0  0.9680373709157144 0.0908589062607489 0  0.9824579048301469 0.197918451840017 0  0.9850379976674881 0.3057927607532502 0  0.9756221052974344 0.4130823495886545 0  0.9545015013288854 0.5185677879559212 0  0.921861952394497 0.6212832879971618 0  0.8779880672739681 0.7197127058667893 0  0.8237225453865947 0.8125031945813808 0  0.759545422919142 0.8988465058230805 0  0.6862918822672551 0.9776924172722137 0  0.6048795026119246 1.047951482835108 0  0.5162653634900988 1.109091893669814 0  0.4215725331393629 1.160293976447141 0  0.3218232234702889 1.200808621273161 0  0.2181724928541305 1.230414606315314 0  0.1119206094410598 1.248598056087362 0  0.004523472627959206 1.255101202273759 0  -0.1029371895029325 1.250063596190632 0  -0.2094181760466897 1.233465462293502 0  -0.3135294858667403 1.205413449263002 0  -0.4138735256201883 1.166331921244753 0  -0.5093063565189674 1.116711787760056 0  -0.5987645560548539 1.057139536356289 0  -0.6814144813125778 0.9881521842158668 0  -0.7559351831907188 0.9106594351931451 0  -0.8215953324666697 0.825568161888048 0  -0.8776397065448199 0.7337778056331856 0  -0.9231620615003887 0.6361696125867907 0  -0.9577617325012729 0.5341471039704456 0  -0.9809034694644059 0.4289745952001351 0  2.693771383036027 1.248486078077131e-07 0  2.686240742686668 0.2013056752272416 0  2.663686205788192 0.4014865698606437 0  2.626234446080006 0.5994203844155918 0  2.574096196684562 0.794003340558998 0  2.507562452503582 0.9841459358984855 0  2.427003791761388 1.168783245053826 0  2.33287563130369 1.346886918313559 0  2.225700300656501 1.51745678914339 0  2.10607649211329 1.679540169937624 0  1.974675930988607 1.83223068387062 0  1.832230155729608 1.974673978254207 0  1.67954100583514 2.106076064170841 0  1.517456003269207 2.225698520224282 0  1.346886853971609 2.332876035379918 0  1.168784727853252 2.427005853071809 0  0.9841462742444654 2.507563234254156 0  0.7940036743240336 2.574096511827678 0  0.599420509578051 2.626235077409683 0  0.4014868062526922 2.663686241062884 0  0.2013058847081025 2.68624107824982 0  4.23260275082322e-07 2.693773473557573 0  -0.2013053791135356 2.686241049652255 0  -0.4014858820468308 2.663684690317909 0  -0.5994210554738437 2.62623519771407 0  -0.7940029812003003 2.574095026265149 0  -0.9841461789540649 2.507562867939125 0  -1.168784240244481 2.427006050745152 0  -1.346886880158167 2.332876293427113 0  -1.517455753404334 2.225698681042912 0  -1.67953940771182 2.106075319107889 0  -1.832230261819938 1.974674117479827 0  -1.974675848428984 1.832230933721956 0  -2.106076408163286 1.679540528829573 0  -2.225699385524247 1.517456730096262 0  -2.332875934383077 1.346886878490108 0  -2.427006147573473 1.168783494487805 0  -2.507562579270985 0.9841455120131344 0  -2.574096212428108 0.7940036929722273 0  -2.626234321465609 0.5994212965333008 0  -2.663685813044324 0.4014853996332933 0  -2.686240601182301 0.2013058480014316 0  -2.693771421423345 -4.62117571489959e-08 0  -2.686240536366507 -0.2013063114775335 0  -2.663685782163466 -0.4014859928354967 0  -2.626234243521961 -0.5994215508240911 0  -2.574095999571527 -0.7940039848298757 0  -2.507562821146055 -0.9841450724616102 0  -2.427005293014781 -1.168784628029241 0  -2.33287604454444 -1.346886041564391 0  -2.225699564640672 -1.517456523017283 0  -2.106074874217269 -1.679539054614705 0  -1.974673873657687 -1.832229893985351 0  -1.832230344893635 -1.974674019261434 0  -1.67953880100813 -2.106075168870011 0  -1.517455546731237 -2.225698395408456 0  -1.346887145109976 -2.33287576242906 0  -1.168783431601421 -2.42700433515168 0  -0.9841457260846596 -2.507562940922323 0  -0.7940043668349162 -2.574096182154813 0  -0.5994202354794275 -2.626234766568232 0  -0.4014861712585155 -2.663686651777081 0  -0.201305604717961 -2.686240593745387 0  -1.630404864354268e-07 -2.69377327405644 0  0.2013063698039915 -2.686241011317854 0  0.4014855572034612 -2.663684308372785 0  0.5994207227717975 -2.626233188347403 0  0.7940039630576492 -2.574096455686327 0  0.9841456616416669 -2.507562835707106 0  1.168783274711984 -2.427006457156366 0  1.346885584833503 -2.332874483159906 0  1.517455612080817 -2.22569823936444 0  1.679539014006905 -2.106075464610454 0  1.832231112514745 -1.974675579199075 0  1.974675307397885 -1.832230975143832 0  2.106076857159384 -1.679540310445507 0  2.225699767473778 -1.517456215734614 0  2.332876181580254 -1.346885982426925 0  2.42700552630447 -1.168784462423303 0  2.507563081554566 -0.9841457594608162 0  2.574096191492145 -0.7940025210421087 0  2.626234591708762 -0.5994202258778865 0  2.663685700201522 -0.4014864498362136 0  2.686238581019049 -0.2013059717425591 0  0.08900513779323981 -1.700774612558031 0  -0.005010161539596692 0.2724649832693686 0  -0.9157633179363091 -1.460216993661573 0  1.007435491651889 -1.40122979222215 0  1.628504191330224 -0.7120000180688113 0  -1.630460761618334 -0.7141651681486376 0  1.834741729209815 0.2047876983115025 0  -1.839337925970967 0.2051981689582212 0  1.621308817649191 0.9969516831267039 0  -1.617276229983856 1.013851820304547 0  1.13389892483206 1.580598605740463 0  -1.116160220823813 1.595929934539606 0  0.468825894778192 1.912159130891679 0  -0.4489982502727131 1.917553257002186 0  -0.5083437311071414 -1.974771427577075 0  0.6780897128026253 -1.946558886169246 0  -1.563510660442619 -1.34623740355313 0  1.59899703106933 -1.376575377643302 0  2.09890509961435 -0.3979860853428854 0  -2.099231436073566 -0.3982191853312633 0  -0.2600989466078031 -1.256094650619538 0  0.4422955987373273 -1.235540943073688 0  -0.9949780634099396 -0.9088596098856357 0  0.9402794343289498 -0.8907217693951729 0  -1.008527563456991 -1.952976197772101 0  -0.05020780198391754 -2.189725670195161 0  0.4685567954855509 0.4222758194066101 0  -0.5006955246767339 0.2722477968043276 0  1.16805968564118 -1.870975743271252 0  0.3481474423422032 -0.07048898791740733 0  0.1015170995107003 0.7528378286840347 0  -0.2349520231473972 -0.1609907386234807 0  -1.464629222545516 -0.1949211550811432 0  -2.048292956538881 0.698479882531821 0  1.458040191987591 -0.1939032061958885 0  2.060080774597279 0.7193878118891979 0  1.953898367978928 -1.060124520513115 0  -1.94863107759777 -1.068108906400929 0  0.0113925857722591 2.169750188740156 0  -0.03776572287098872 1.712316745862394 0  1.618678701232312 1.491187084049774 0  -1.602072326182941 1.508530192149858 0  -1.467942914112061 0.5366940906983929 0  1.458736558472675 0.5268925354177154 0  2.246334489909964 0.02530322682279886 0  -0.8954685064285023 2.05064611948396 0  -2.247865063857 0.02298360763342528 0  1.173249032937902 -0.5241372407174885 0  0.8997296545022362 2.060194956495797 0  -1.231002978870431 -0.5533563491163306 0  1.173689636928356 1.117301847662976 0  -1.143636197670854 1.143389043027425 0  -1.283710611044538 -1.647506888051338 0  -0.6538409772451061 -1.139874538982199 0  1.345575363339281 -1.03152971625254 0  0.6898721550808555 1.521839316468445 0  -0.6626709401510252 1.530526728163923 0  1.951960592018454 1.225128069245923 0  -0.3612342746723371 0.6891860893522874 0  -2.012373854599196 1.101177682061979 0  0.3713485274287205 -2.240176092953705 0  -1.410616999355554 1.837735250297871 0  -0.5240550835030454 -1.567506657236303 0  1.429045640952927 1.820922686370915 0  0.4333584799100293 2.288322174418482 0  -0.433864163653589 2.291713160594782 0  0.6553181825555279 -1.559787479796412 0  -1.472785064076151 0.1705168695344341 0  0.3306699366409848 1.575539275078601 0  1.473577440733231 0.1661864276453735 0  2.280986091644589 0.4068564465000475 0  -2.193288152708997 -0.7679325070034522 0  -1.206565803694916 -1.221580338223587 0  0.08540139498865389 -1.094341913781976 0  -2.156332748238368 0.3631141906568623 0  -0.3852315138102159 -2.308819916418122 0  -1.315737568255339 0.8450970061776297 0  0.944689017788614 -2.165855674258306 0  0.08323112554305331 -0.3373693831296338 0  -1.671830127995489 -1.67199315115801 0  2.19490827024361 -0.765789404140186 0  1.524144508852575 -1.771326005019066 0  1.749345881711637 -0.3862100408197087 0  -1.751433486647772 -0.3903931656125345 0  -0.7701855104695324 -2.218424475255756 0  -1.332641280295779 -0.8753688710696153 0  1.942041830350217 -0.1072438160752753 0  -1.943198026491018 -0.1075669482041143 0  -0.1876477077833536 -1.885666836915053 0  1.226654091092513 0.7781409285304279 0  -0.3283102184226365 1.545909150485754 0  0.6293135068397981 0.1204124792629236 0  1.926551745720322 -1.386000547597109 0  -0.5606371948563007 -0.06373186791378631 0  0.4064041535614661 -1.766924111369191 0  -1.900873550902093 -1.406514557588508 0  -1.62954354824173 -1.033562078424452 0  1.30944
[...]
<PointData  Vectors="f_4709-0"> 
<DataArray  type="Float64"  Name="f_4709-0"  NumberOfComponents="3" format="ascii">-2.5389840858529300e-03 -6.4724224482575102e-02 0.0000000000000000e+00  1.1069842961897974e-02 -7.4280078906074576e-02 0.0000000000000000e+00  2.7109318374171534e-02 -8.2456650484288393e-02 0.0000000000000000e+00  4.4227228245262956e-02 -8.9122848269188620e-02 0.0000000000000000e+00  6.5365844642978205e-02 -9.7200422599904468e-02 0.0000000000000000e+00  8.8747328643970613e-02 -1.0227565642918728e-01 0.0000000000000000e+00  1.1291296106253648e-01 -9.9645971600227090e-02 0.0000000000000000e+00  1.3998670464276192e-01 -9.5122090596562667e-02 0.0000000000000000e+00  1.5926020685943956e-01 -8.3166491693125719e-02 0.0000000000000000e+00  1.6731497251035007e-01 -6.2440100579980728e-02 0.0000000000000000e+00  1.6324322904117278e-01 -3.5811000149713501e-02 0.0000000000000000e+00  1.4576599562861434e-01 -9.6747991714506570e-03 0.0000000000000000e+00  1.2345933365832555e-01 1.3233980993587071e-02 0.0000000000000000e+00  9.4359084332302001e-02 3.2455977011691291e-02 0.0000000000000000e+00  6.2118744050751719e-02 4.5529744317105249e-02 0.0000000000000000e+00  1.3433133340949997e-02 5.4292669672222148e-02 0.0000000000000000e+00  -4.6484086153282735e-02 4.9159552193895624e-02 0.0000000000000000e+00  -8.3081016805436017e-02 3.6332030886373566e-02 0.0000000000000000e+00  -1.0492209477682087e-01 2.0541370657089119e-02 0.0000000000000000e+00  -1.2613231584976223e-01 5.7871932345166877e-04 0.0000000000000000e+00  -1.4577299102925814e-01 -2.4902111699196414e-02 0.0000000000000000e+00  -1.6041030653106877e-01 -5.3373316655555739e-02 0.0000000000000000e+00  -1.6076151615732004e-01 -7.8199879514667739e-02 0.0000000000000000e+00  -1.4615315246402463e-01 -9.3975217735436684e-02 0.0000000000000000e+00  -1.2596085741679647e-01 -1.0527306794696285e-01 0.0000000000000000e+00  -1.0271526802469086e-01 -1.0970268736892508e-01 0.0000000000000000e+00  -7.7272543740837779e-02 -1.0554809889584536e-01 0.0000000000000000e+00  -5.3836202386499159e-02 -9.7514281085221768e-02 0.0000000000000000e+00  -3.5410276423820608e-02 -9.2748810210705468e-02 0.0000000000000000e+00  -1.7443169152888065e-02 -8.1604648260034135e-02 0.0000000000000000e+00  -3.0423886161895742e-03 -7.0190767777130902e-02 0.0000000000000000e+00  8.8810917878013734e-03 -6.0208752359963105e-02 0.0000000000000000e+00  1.9245508208678652e-02 -5.0494574562980891e-02 0.0000000000000000e+00  2.6192347079544029e-02 -3.7205969189256227e-02 0.0000000000000000e+00  3.1597598104720390e-02 -2.3798266569833238e-02 0.0000000000000000e+00  3.6321796549897346e-02 -1.3250177711449190e-02 0.0000000000000000e+00  3.8888461533781518e-02 -2.1302977565804499e-03 0.0000000000000000e+00  3.9001375405354539e-02 8.4666496543752447e-03 0.0000000000000000e+00  3.7222143650307592e-02 1.6732841126333282e-02 0.0000000000000000e+00  3.3441903695585293e-02 2.5741728598546908e-02 0.0000000000000000e+00  2.8744669807648802e-02 3.2732893450758714e-02 0.0000000000000000e+00  2.2891349289367438e-02 3.7708764867265078e-02 0.0000000000000000e+00  1.4069660903491618e-02 4.2014276684471857e-02 0.0000000000000000e+00  5.3852658285179914e-03 4.3443829999730482e-02 0.0000000000000000e+00  8.0479070257522412e-04 4.6543688448496975e-02 0.0000000000000000e+00  -5.5458010885749680e-03 4.6449041348204233e-02 0.0000000000000000e+00  -1.4719896762124065e-02 4.5414133713844181e-02 0.0000000000000000e+00  -2.3723964301974789e-02 4.1369611169871014e-02 0.0000000000000000e+00  -3.0743184809628964e-02 3.6001111721456557e-02 0.0000000000000000e+00  -3.4641569366136257e-02 2.8809368258144660e-02 0.0000000000000000e+00  -3.6683354793920230e-02 2.1674970269483444e-02 0.0000000000000000e+00  -4.0383136146734701e-02 1.1283230283493208e-02 0.0000000000000000e+00  -4.0475346496432939e-02 1.8551445104865473e-03 0.0000000000000000e+00  -3.8609136459183506e-02 -7.4870767617308777e-03 0.0000000000000000e+00  -3.5542789104984596e-02 -1.7791302045053706e-02 0.0000000000000000e+00  -3.0900663672717776e-02 -3.1028287955708264e-02 0.0000000000000000e+00  -2.4160719731308372e-02 -4.3280773077823069e-02 0.0000000000000000e+00  -1.4768018506331934e-02 -5.5185316598716186e-02 0.0000000000000000e+00  1.5451770625991929e-01 2.5483296384986453e-06 0.0000000000000000e+00  1.5411922003204570e-01 1.1545902191244017e-02 0.0000000000000000e+00  1.5283213611014024e-01 2.3045169187419289e-02 0.0000000000000000e+00  1.5067441074549964e-01 3.4379607809034360e-02 0.0000000000000000e+00  1.4768292528030894e-01 4.5551207713523056e-02 0.0000000000000000e+00  1.4386454021480241e-01 5.6465211725145202e-02 0.0000000000000000e+00  1.3920833197539512e-01 6.7035936114265088e-02 0.0000000000000000e+00  1.3383912364965264e-01 7.7284237357901645e-02 0.0000000000000000e+00  1.2770712837969944e-01 8.7069374300232330e-02 0.0000000000000000e+00  1.2083106868985195e-01 9.6363557427435631e-02 0.0000000000000000e+00  1.1330585232802338e-01 1.0511410120082108e-01 0.0000000000000000e+00  1.0510450033533472e-01 1.1326612315227939e-01 0.0000000000000000e+00  9.6380755418441974e-02 1.2082228609859862e-01 0.0000000000000000e+00  8.7053517177513404e-02 1.2767181887807491e-01 0.0000000000000000e+00  7.7281257659665759e-02 1.3384816174598743e-01 0.0000000000000000e+00  6.7065261197425452e-02 1.3924935528114524e-01 0.0000000000000000e+00  5.6473433332533539e-02 1.4387952484512107e-01 0.0000000000000000e+00  4.5558148258174606e-02 1.4768913368379474e-01 0.0000000000000000e+00  3.4382149220104512e-02 1.5068697336183440e-01 0.0000000000000000e+00  2.3050941252657414e-02 1.5283271246721380e-01 0.0000000000000000e+00  1.1548092343972831e-02 1.5412604399516244e-01 0.0000000000000000e+00  8.4805404655892276e-06 1.5455926496488967e-01 0.0000000000000000e+00  -1.1537593087031429e-02 1.5412551012353545e-01 0.0000000000000000e+00  -2.3031703509396890e-02 1.5280198106893658e-01 0.0000000000000000e+00  -3.4393785914913447e-02 1.5068924359586272e-01 0.0000000000000000e+00  -4.5543850447248097e-02 1.4765969011571428e-01 0.0000000000000000e+00  -5.6472104152526077e-02 1.4387195238135037e-01 0.0000000000000000e+00  -6.7054738949375664e-02 1.3925366831545360e-01 0.0000000000000000e+00  -7.7282431463517348e-02 1.3385296911338931e-01 0.0000000000000000e+00  -8.7048860655710186e-02 1.2767472138807578e-01 0.0000000000000000e+00  -9.6348129281568537e-02 1.2080801479322570e-01 0.0000000000000000e+00  -1.0510709976758648e-01 1.1326845053300809e-01 0.0000000000000000e+00  -1.1330415722518322e-01 1.0511908283078250e-01 0.0000000000000000e+00  -1.2082869285478749e-01 9.6371607583248600e-02 0.0000000000000000e+00  -1.2768917999036195e-01 8.7067650278740819e-02 0.0000000000000000e+00  -1.3384544248608449e-01 7.7283005167054622e-02 0.0000000000000000e+00  -1.3925579269076552e-01 6.7039701286515027e-02 0.0000000000000000e+00  -1.4386624532566905e-01 5.6458750964973013e-02 0.0000000000000000e+00  -1.4768373570161336e-01 4.5556609528258532e-02 0.0000000000000000e+00  -1.5067144256716444e-01 3.4399678182812123e-02 0.0000000000000000e+00  -1.5282436968508312e-01 2.3021764866283299e-02 0.0000000000000000e+00  -1.5411648911091558e-01 1.1548510223366722e-02 0.0000000000000000e+00  -1.5451848242599409e-01 -1.0256595580283288e-06 0.0000000000000000e+00  -1.5411512527597276e-01 -1.1558574771830426e-02 0.0000000000000000e+00  -1.5282386708743834e-01 -2.3032785407564298e-02 0.0000000000000000e+00  -1.5066998700303821e-01 -3.4404868726760594e-02 0.0000000000000000e+00  -1.4767920203094148e-01 -4.5563525686814245e-02 0.0000000000000000e+00  -1.4387189270308065e-01 -5.6448148167349770e-02 0.0000000000000000e+00  -1.3923791012964595e-01 -6.7064224765614480e-02 0.0000000000000000e+00  -1.3384815596772828e-01 -7.7265603695403945e-02 0.0000000000000000e+00  -1.2769300513669868e-01 -8.7063471690969688e-02 0.0000000000000000e+00  -1.2079934423642288e-01 -9.6341156865395697e-02 0.0000000000000000e+00  -1.1326438423518170e-01 -1.0509920708986595e-01 0.0000000000000000e+00  -1.0510758751178843e-01 -1.1326768900713884e-01 0.0000000000000000e+00  -9.6337272206426128e-02 -1.2080417551017757e-01 0.0000000000000000e+00  -8.7044084626542284e-02 -1.2766965783238371e-01 0.0000000000000000e+00  -7.7287771346974191e-02 -1.3384238664284775e-01 0.0000000000000000e+00  -6.7039661222491595e-02 -1.3921909056935730e-01 0.0000000000000000e+00  -5.6460847399299338e-02 -1.4387429082572861e-01 0.0000000000000000e+00  -4.5572012485653658e-02 -1.4768245336212474e-01 0.0000000000000000e+00  -3.4376535053788973e-02 -1.5068073816173078e-01 0.0000000000000000e+00  -2.3037346714247502e-02 -1.5284096981604553e-01 0.0000000000000000e+00  -1.1543525501483867e-02 -1.5411618721931156e-01 0.0000000000000000e+00  -4.3011781843381966e-06 -1.5455532914915479e-01 0.0000000000000000e+00  1.1558399701061052e-02 -1.5412469379535904e-01 0.0000000000000000e+00  2.3025305655593402e-02 -1.5279431570309976e-01 0.0000000000000000e+00  3.4387235644112599e-02 -1.5064916883935989e-01 0.0000000000000000e+00  4.5564128375569266e-02 -1.4768792691944277e-01 0.0000000000000000e+00  5.6460897588425707e-02 -1.4387166534745760e-01 0.0000000000000000e+00  6.7034965148265721e-02 -1.3926212605835364e-01 0.0000000000000000e+00  7.7256701327055768e-02 -1.3381692771772857e-01 0.0000000000000000e+00  8.7045522995797500e-02 -1.2766643863183677e-01 0.0000000000000000e+00  9.6341640817828866e-02 -1.2080997303647964e-01 0.0000000000000000e+00  1.0512379747346610e-01 -1.1329782288386736e-01 0.0000000000000000e+00  1.1329300624958875e-01 -1.0512036852729756e-01 0.0000000000000000e+00  1.2083833106865267e-01 -9.6366583955261195e-02 0.0000000000000000e+00  1.2769593402112267e-01 -8.7058862655887762e-02 0.0000000000000000e+00  1.3385136075992041e-01 -7.7263582893173907e-02 0.0000000000000000e+00  1.3924292269667515e-01 -6.7059908806916813e-02 0.0000000000000000e+00  1.4387655934174196e-01 -5.6463111179663322e-02 0.0000000000000000e+00  1.4768283079850145e-01 -4.5534922885742388e-02 0.0000000000000000e+00  1.5067734086571605e-01 -3.4376467626308471e-02 0.0000000000000000e+00  1.5282192348675946e-01 -2.3044198124371786e-02 0.0000000000000000e+00  1.5407632315688471e-01 -1.1550501143763778e-02 0.0000000000000000e+00  -2.4556783351299062e-03 -5.2166930880637383e-02 0.0000000000000000e+00  -4.5451265642287427e-03 7.4205142988615039e-02 0.0000000000000000e+00  -1.1315950268375990e-02 -7.4164419902411502e-02 0.0000000000000000e+00  1.7889575797535404e-02 -7.6722152400432730e-02 0.0000000000000000e+00  5.1032661906417871e-02 -5.1829777012008443e-02 0.0000000000000000e+00  -4.9022283239402789e-02 -5.4717920745686092e-02 0.0000000000000000e+00  7.7050154498414652e-02 -2.9708139284236088e-02 0.0000000000000000e+00  -7.9200008994711912e-02 -3.1589329022397625e-02 0.0000000000000000e+00  9.4630738897170483e-02 1.1953230345861127e-02 0.0000000000000000e+00  -9.6612819349775558e-02 1.3995515773821661e-02 0.0000000000000000e+00  8.1590891298462143e-02 6.1690006328543670e-02 0.0000000000000000e+00  -7.9693871759258586e-02 6.5044637668064648e-02 0.0000000000000000e+00  3.8653709856506652e-02 9.7387153305616564e-02 0.0000000000000000e+00  -3.4032741914524725e-02 9.9855720093016812e-02 0.0000000000000000e+00  -1.8578151955939433e-02 -1.0382595424122518e-01 0.0000000000000000e+00  2.5520753043342347e-02 -1.0723522668827526e-01 0.0000000000000000e+00  -7.7070903268574936e-02 -8.0978718884736900e-02 0.0000000000000000e+00  8.4294224798977982e-02 -8.2999845129337127e-02 0.0000000000000000e+00  1.1106855141387019e-01 -3.7796729549756415e-02 0.0000000000000000e+00  -1.1072197558206795e-01 -4.0979250970775399e-02 0.0000000000000000e+00  4.5121216671060671e-02 -1.3441051518887692e-02 0.0000000000000000e+00  -5.0199598963128658e-02 -3.8805544112342487e-02 0.0000000000000000e+00  3.2492246926633016e-02 -5.8984471413945479e-02 0.0000000000000000e+00  -3.6852508137662041e-02 -6.3702749084768889e-02 0.0000000000000000e+00  -5.1811092109575400e-02 -1.1556445185474254e-01 0.0000000000000000e+00  -3.3333503187168824e-03 -1.2315992842122853e-01 0.0000000000000000e+00  1.8685290878867781e-02 3.4108855824832092e-02 0.0000000000000000e+00  -1.5173394564630082e-02 2.6372728100126946e-02 0.0000000000000000e+00  6.1417740155372123e-02 -1.1293029819226089e-01 0.0000000000000000e+00  -4.3191839193244354e-02 6.8897822893612903e-02 0.0000000000000000e+00  5.1066135370899761e-03 6.2474983787832207e-02 0.0000000000000000e+00  5.0214326278063874e-02 9.4792111723424444e-02 0.0000000000000000e+00  -4.4524883787465932e-03 -5.8590990594726111e-02 0.0000000000000000e+00  -1.2341361790798938e-01 1.0753239643487383e-02 0.0000000000000000e+00  1.0692318738519798e-03 -5.6691139471652920e-02 0.0000000000000000e+00  1.2419645804891452e-01 1.4342457173466307e-02 0.0000000000000000e+00  1.1041638325376646e-01 -6.6313841066460377e-02 0.0000000000000000e+00  -1.0850422154355879e-01 -6.8605500618178383e-02 0.0000000000000000e+00  2.6448057446760305e-03 1.2604953143449157e-01 0.0000000000000000e+00  -9.1857083397323678e-04 7.6919434849457707e-02 0.0000000000000000e+00  1.1091944408568498e-01 6.5802109669644712e-02 0.0000000000000000e+00  -1.1013439454994113e-01 6.7896377803478153e-02 0.0000000000000000e+00  -5.0500391551666322e-02 -3.6409025703092769e-02 0.0000000000000000e+00  4.6653813224260827e-02 -3.8349149249454297e-02 0.0000000000000000e+00  1.2910274377992723e-01 -1.6427194358410866e-02 0.0000000000000000e+00  -6.6057055651885965e-02 1.1527165221210182e-01 0.0000000000000000e+00  -1.2959238983768068e-01 -1.8926619845322106e-02 0.0000000000000000e+00  -4.6110015201304269e-02 -5.9326204956964973e-02 0.0000000000000000e+00  6.7907856320012241e-02 1.1511623332828071e-01 0.0000000000000000e+00  3.4723646971446989e-02 -5.8028674151002296e-02 0.0000000000000000e+00  6.7067120343864611e-02 6.2437255846688267e-03 0.0000000000000000e+00  -6.6944978998127527e-02 1.1907741746743347e-02 0.0000000000000000e+00  -6.2525108888429867e-02 -9.6952056020757071e-02 0.0000000000000000e+00  4.9168643031453650e-02 -5.8989254534420339e-02 0.0000000000000000e+00  3.2856265525249499e-02 -6.2846246968229463e-02 0.0000000000000000e+00  5.0693296006121505e-02 5.1183631528371860e-02 0.0000000000000000e+00  -4.7278713783456876e-02 5.5426579680861586e-02 0.0000000000000000e+00  1.2751375432127351e-01 5.2918326715729859e-02 0.0000000000000000e+00  -2.5795014323864628e-02 4.8227702837697950e-02 0.0000000000000000e+00  -1.3019373214878477e-01 4.3814555635451030e-02 0.0000000000000000e+00  1.7415323952250598e-02 -1.3155474682456222e-01 0.0000000000000000e+00  -9.8976016824327287e-02 9.8723485025552726e-02 0.0000000000000000e+00  8.8412517982274126e-03 -5.8056599682544369e-02 0.0000000000000000e+00  1.0077525903666083e-01 9.6538448548779937e-02 0.0000000000000000e+00  3.3514280358497565e-02 1.3654669077400092e-01 0.0000000000000000e+00  -3.1131516267642986e-02 1.3754478224632213e-01 0.0000000000000000e+00  -2.5939403852455489e-03 -6.8188058284017986e-02 0.0000000000000000e+00  -2.2546441559551867e-02 -5.4737465895574496e-02 0.0000000000000000e+00  2.6257439959147613e-02 6.0956229549631251e-02 0.0000000000000000e+00  1.9420821216721840e-02 -5.4296780593535397e-02 0.0000000000000000e+00  1.3755693342865188e-01 5.6749663240093298e-03 0.0000000000000000e+00  -1.2714191350668860e-01 -5.3572089834425671e-02 0.0000000000000000e+00  -2.5865992965825771e-02 -6.9580371693798687e-02 0.0000000000000000e+00  -2.4578252003212848e-02 2.0094513186986598e-02 0.0000000000000000e+00  -1.2510620160430252e-01 -5.6467559033716455e-03 0.0000000000000000e+00  -2.1161810886089632e-02 -1.3772362368704538e-01 0.0000000000000000e+00  -6.1421943910500133e-02 -1.6440869673979119e-02 0.0000000000000000e+00  5.2410329247231623e-02 -1.3224733719801401e-01 0.0000000000000000e+00  -5.3230191089230244e-02 1.1081795010577820e-01 0.0000000000000000e+00  -9.8997091817045316e-02 -1.0243715565002227e-01 0.0000000000000000e+00  1.2816220756214428e-01 -5.1132522975841699e-02 0.0000000000000000e+00  8.9468267439607424e-02 -1.0868093910889831e-01 0.0000000000000000e+00  5.7012921715645225e-02 -4.5098643110498916e-02 0.0000000000000000e+00  -5.7157957231673655e-02 -4.8692280499276624e-02 0.0000000000000000e+00  -4.2810544280674531e-02 -1.3383678242980154e-01 0.0000000000000000e+00  -1.3437547664049743e-02 -5.7265382576239005e-02 0.0000000000000000e+00  8.6744729333842183e-02 -3.3809366028015236e-02 0.0000000000000000e+00  -8.7508499145268551e-02 -3.6937994449672662e-02 0.0000000000000000e+00  -3.7415836056920882e-03 -8.2777505141326160e-02 0.0000000000000000e+00  4.6979086269493861e-02 -2.8900504779762585e-02 0.0000000000000000e+00  -2.2969727572952899e-02 6.0916993730040600e-02 0.0000000000000000e+00  -7.1671914028425179e-03 -1.2036820677225817e-02 0.0000000000000000e+00  1.1534578283583234e-01 -8.4585576365153195e-02 0.0000000000000000e+00  2.9813645237773037e-02 -2.9590160217577775e-03 0.0000000000000000e+00  1.6784464451011125e-03 -7.4397045011973570e-02 0.0000000000000000e+00  -1.1264256919999238e-01 -8.6700624073972346e-02 0.0000000000000000e+00  -6.7811101268981405e-02 -6.5094420122191382e-02 0.0000000000000000e+00  5.9932243337465538e-02 -8.9894091838353132e-02 0.0000000000000000e+00  9.9176322770928842e-03 -3.5021850710005971e-02 0.0000000000000000e+00  5.4896804530406518e-02 1.9678807143899600e-02 0.0000000000000000e+00  8.9346589043351299e-02 -8.0824010422009158e-03 0.0000000000000000e+00  2.6206100450663360e-02 3.7811494721993653e-02 0.0000000000000000e+00  -7.7700690575967568e-02 -1.2022847637831911e-01 0.0000000000000000e+00  -1.7094176765053856e-02 8.7525118740594363e-02 0.0000000000000000e+00  1.4133316794065071e-01 -2.4723417000163443e-02 0.0000000000000000e+00  -1.4150424597943712e-01 -2.7134372391648353e-02 0.0000000000000000e+00  -5.3108927128176303e-02 2.4612784015497165e-02 0.0000000000000000e+00  -2.1918399908383717e-02 -8.8954027171268518e-02 0.0000000000000000e+00  -7.9009868150541174e-02 -6.1671169528664256e-02 0.0000000000000000e+00  -2.8818546592916130e-02 -6.5778648894250821e-02 0.0000000000000000e+00  7.5438482579049518e-02 -6.5892053320388624e-02 0.0000000000000000e+00  4.0779680129371986e-03 -9.8767158861881921e-02 0.0000000000000000e+00  -5.6503584881415310e-03 -4.5895759464981900e-03 0.0000000000000000e+00  -9.1593495138546671e-02 -7.2912356847619130e-03 0.0000000000000000e+00  3.0683289324233434e-02 -9.5369980967568782e-02 0.0000000000000000e+00  8.9815093620294856e-02 -3.9038401656361764e-02 0.0000000000000000e+00  9.3112833618329491e-02 -6.3322688703058794e-02 0.0000000000000000e+00  8.9063525721387968e-02 -6.4361174013306266e-02 0.0000000000000000e+00  -1.4400971690088332e-01 2.0155299354156740e-02 0.0000000000000000e+00  -1.2659457426873846e-01 6.9795049269615439e-02 0.0000000000000000e+00  -9.2237766896178144e-02 3.2393881627569746e-02 0.0000000000000000e+00  8.5886910800554161e-02 1.1633315216177413e-01 0.0000000000000000e+00  8.9939255327476597e-02 4.0843294877846520e-02 0.0000000000000000e+00  1.3760506193212280e-01 4.4041626976495593e-02 0.0000000000000000e+00  3.6446072177897373e-02 -1.3934528823776016e-01 0.0000000000000000e+00  6.7473932732598094e-02 7.9784608689694114e-02 0.0000000000000000e+00  -9.2958164359244078e-03 5.5112211779958765e-02 0.0000000000000000e+00  -5.4568466089974579e-02 8.8208222740748216e-02 0.0000000000000000e+00  -3.3258016106841169e-02 -7.8306263569617257e-02 0.0000000000000000e+00  9.5086333279541593e-02 -5.3278834650396595e-02 0.0000000000000000e+00  -2.9305821179498526e-02 8.7223941856454414e-03 0.0000000000000000e+00  -9.0350364140106318e-02 -5.1481937769253860e-02 0.0000000000000000e+00  1.0796439818725459e-01 -8.5224861666018080e-03 0.0000000000000000e+00  -5.4416521333492994e-03 1.4765420835285858e-01 0.0000000000000000e+00  -8.4008248528684701e-02 1.1819832918460096e-01 0.0000000000000000e+00  1.0664923757676384e-01 -9.9366792896441875e-02 0.0000000000000000e+00  1.2295747194733218e-02 -6.5474591124859108e-02 0.0000000000000000e+00  6.7030213313188491e-03 -1.4470890438770168e-01 0.00