<?xml version="1.0"?>
<VTKFile type="UnstructuredGrid"  version="0.1"  >
<UnstructuredGrid>
<Piece  NumberOfPoints="1235" NumberOfCells="2353">
<Points>
<DataArray  type="Float64"  NumberOfComponents="3"  format="ascii">-1.009165262415116 0.2348663841626487 0  -1.007695844035896 0.1260681060622941 0  -0.9939255105285756 0.01814335267979959 0  -0.9683062905111324 -0.08761302184784533 0  -0.9310179515036038 -0.1900105988380255 0  -0.8827333290551838 -0.2877235086965485 0  -0.8239513781164135 -0.3795142827890911 0  -0.755567101554926 -0.4642493051574521 0  -0.6783279987023729 -0.5405189459046399 0  -0.5940524808789854 -0.6079008767764672 0  -0.5036891075127257 -0.665681474730044 0  -0.4077452772791711 -0.7129037710026217 0  -0.3076515971254117 -0.7499223830169863 0  -0.2045712992741115 -0.7766065050166628 0  -0.09972022430205607 -0.7923841458169127 0  0.005692072607259341 -0.7976006760818781 0  0.1110619587741503 -0.7908100085306694 0  0.2155864685365542 -0.7730031470896528 0  0.3183008708067575 -0.744835550431845 0  0.4177161343331376 -0.7059797411032037 0  0.5126725176820556 -0.6569948314127049 0  0.6023836452764455 -0.5983237986439336 0  0.6855073216355885 -0.5296948112343558 0  0.7612297859036236 -0.4520090470995216 0  0.8283983721243098 -0.3663965736208218 0  0.8858020881210817 -0.2737791634639097 0  0.9326222996169656 -0.1754151052397327 0  0.9683160367461718 -0.07255179147994978 0  0.9924403083930565 0.03356594864942725 0  1.004559372766042 0.1416218466390867 0  1.004665342646056 0.2503667424608497 0  0.9926498180494514 0.3584285509212131 0  0.9685067506941583 0.4643880616092161 0  0.9328184136494223 0.5669583213284737 0  0.8860157655074152 0.6650406642355657 0  0.8287901443506346 0.757358504177629 0  0.7616804150338334 0.8428313117920936 0  0.68562326253308 0.9204315716478945 0  0.6015201619556285 0.989287521728772 0  0.5105828099781342 1.048808787366643 0  0.4137536883010858 1.098286456678888 0  0.3122185036366461 1.137153761371983 0  0.207077760165165 1.165000475745395 0  0.09949184759736519 1.181670621435926 0  -0.009335456952959977 1.186312675450828 0  -0.1179027477836379 1.179553643021952 0  -0.2250687861996776 1.161353091722321 0  -0.3297276136741275 1.131884722864075 0  -0.4306571970550276 1.091504787176363 0  -0.5267095657632149 1.040587719874477 0  -0.6166503956445187 0.9795929345278417 0  -0.6995455919782565 0.9093971716008913 0  -0.774330358264714 0.8306102535321745 0  -0.8401685061352779 0.744215733040558 0  -0.8961420430915373 0.6511011233674859 0  -0.9415688959469179 0.5524158728918329 0  -0.9757829603352296 0.4492694311127262 0  -0.9985845300909029 0.34304780323682 0  2.473584996017997 0 0  2.465563922072069 0.1990408970587442 0  2.441552719976764 0.3967909375217846 0  2.401707111591528 0.5919676364937828 0  2.346285510976755 0.7833051981864423 0  2.275647348479452 0.9695627250899215 0  2.190250739689506 1.149532265669356 0  2.090649514384298 1.322046648394092 0  1.977489624730066 1.485987051292943 0  1.851504956034241 1.640290257944001 0  1.713512567217612 1.783955552841119 0  1.564407391873692 1.916051211417979 0  1.405156434280951 2.035720542639436 0  1.236792498008998 2.142187444971615 0  1.060407487791119 2.23476143969818 0  0.8771453281030731 2.312842148939764 0  0.6881945443739159 2.375923189334902 0  0.4947805549425139 2.423595456130443 0  0.2981577237493857 2.455549776382865 0  0.09960122530520879 2.471578914063448 0  -0.0996012253052085 2.471578914063448 0  -0.2981577237493859 2.455549776382865 0  -0.4947805549425132 2.423595456130443 0  -0.6881945443739151 2.375923189334902 0  -0.8771453281030722 2.312842148939764 0  -1.060407487791119 2.23476143969818 0  -1.236792498008999 2.142187444971615 0  -1.40515643428095 2.035720542639436 0  -1.564407391873692 1.91605121141798 0  -1.713512567217612 1.783955552841119 0  -1.85150495603424 1.640290257944002 0  -1.977489624730065 1.485987051292944 0  -2.090649514384297 1.322046648394093 0  -2.190250739689506 1.149532265669356 0  -2.275647348479452 0.9695627250899217 0  -2.346285510976755 0.7833051981864423 0  -2.401707111591528 0.5919676364937826 0  -2.441552719976764 0.3967909375217842 0  -2.465563922072069 0.1990408970587448 0  -2.473584996017997 3.029267947792358e-16 0  -2.465563922072069 -0.1990408970587441 0  -2.441552719976765 -0.3967909375217836 0  -2.401707111591528 -0.5919676364937831 0  -2.346285510976755 -0.7833051981864417 0  -2.275647348479452 -0.96956272508992 0  -2.190250739689506 -1.149532265669356 0  -2.090649514384299 -1.322046648394091 0  -1.977489624730066 -1.485987051292943 0  -1.851504956034241 -1.640290257944 0  -1.713512567217612 -1.783955552841118 0  -1.564407391873691 -1.91605121141798 0  -1.405156434280951 -2.035720542639436 0  -1.236792498008997 -2.142187444971615 0  -1.060407487791118 -2.23476143969818 0  -0.8771453281030733 -2.312842148939764 0  -0.6881945443739151 -2.375923189334902 0  -0.4947805549425142 -2.423595456130443 0  -0.2981577237493871 -2.455549776382865 0  -0.09960122530520855 -2.471578914063448 0  0.09960122530520764 -2.471578914063449 0  0.298157723749384 -2.455549776382865 0  0.4947805549425133 -2.423595456130443 0  0.6881945443739143 -2.375923189334902 0  0.8771453281030726 -2.312842148939764 0  1.060407487791118 -2.23476143969818 0  1.236792498008997 -2.142187444971616 0  1.40515643428095 -2.035720542639436 0  1.56440739187369 -1.916051211417981 0  1.713512567217611 -1.783955552841119 0  1.85150495603424 -1.640290257944002 0  1.977489624730066 -1.485987051292943 0  2.090649514384297 -1.322046648394093 0  2.190250739689507 -1.149532265669356 0  2.275647348479451 -0.9695627250899219 0  2.346285510976755 -0.7833051981864416 0  2.401707111591528 -0.5919676364937829 0  2.441552719976764 -0.3967909375217856 0  2.465563922072069 -0.1990408970587439 0  -0.002136372618407364 0.1945683611514141 0  0.1123206866923533 -1.631242118146695 0  -0.7662788177542844 -1.460022304304307 0  0.8990083883992461 -1.385136408013262 0  -1.383425914065536 -0.9549099612561593 0  1.523582772615936 -0.7331697558599982 0  -1.712407742161495 -0.2079239441384007 0  1.73214843008339 -0.02135204216178586 0  -1.678516422922087 0.5445603183196129 0  1.606081388184131 0.7620950942586604 0  -1.34287593867716 1.195594634160906 0  1.198775064499708 1.353137325752044 0  -0.7839727720583963 1.641958627651016 0  0.5953305676969292 1.724686273233414 0  -0.1036227441474064 1.825493622885624 0  0.6151358885923995 -1.842556931867354 0  0.4997979630560133 0.2489288359499998 0  -0.5067502571036917 0.1872428877098111 0  -0.391034742024111 -1.874328314561288 0  0.2860730847376716 -0.2125901965964963 0  -0.248212587278606 -0.2382968938244342 0  -0.2606710845920397 0.6199043916348148 0  1.438460061503953 -1.276773285923464 0  -1.300631842003122 -1.468109860301892 0  -1.833723565155607 -0.7072897544359844 0  -0.2770759938524293 -1.289558962089234 0  0.4204200231777491 -1.235701432322362 0  1.947914529222388 0.415234085056309 0  1.040438636873461 -0.8954746637123387 0  1.931052173205023 -0.4660958710513965 0  -0.788792803946966 -1.012006436823099 0  -2.016295952007051 0.2448226532557117 0  0.2247817784715988 0.6501054617784979 0  -1.757997286215045 1.014980206430887 0  0.2380254589472194 -2.036004410636645 0  -1.320001725246388 -0.4810403385790989 0  1.027514382118193 -1.781681543425222 0  -0.8177169624868301 -1.88369622644072 0  -1.22823028307795 1.625134124382412 0  1.781725298427219 -1.05205865003692 0  1.371657593567767 -0.3021908486832138 0  1.623849047496541 1.210204461480721 0  -0.5100854356654758 1.979449417560363 0  -1.756736471218644 -1.100532149262432 0  1.53332181568242 0.3485206151114512 0  -1.443372272626179 0.1745929668836613 0  1.031120893041711 1.756656039590404 0  0.2816049256401471 2.022971572060297 0  -1.298481756038239 0.7765082948278834 0  1.216907906954818 0.9297681557852775 0  2.095051571598844 -0.125900076160727 0  -2.054475115061102 -0.3892412950093861 0  -1.064311337777419 -0.7564419948163982 0  -0.9210468093069921 1.255015129737873 0  0.786011307054307 1.358565742792771 0  0.2166847668168982 1.572844074695078 0  -0.3864839330150841 1.534043979005594 0  -2.033631243825237 0.6045517041486648 0  0.6840216899879294 -0.9810162174156551 0  1.96832171988063 0.7772150479200346 0  0.06360303049979918 -1.158130708658203 0  -1.65645031692507 1.34894764397734 0  -1.036709821031298 -1.249038552317611 0  1.126011968198959 -0.5541501128442861 0  -1.015709588707794 1.887250943662242 0  1.352401521319034 1.653554007772762 0  1.345355212928184 0.04978161770474546 0  -1.383299100561912 -0.1535270350801762 0  -0.1725525696338645 -2.137447110804162 0  1.289036149022194 0.59228568943672 0  -0.173483893812479 2.148983630828333 0  0.6104970348902592 2.054763079013889 0  1.351763399983014 -1.625899545716966 0  0.6026923398170099 -0.07896697763177615 0  0.0297064480777265 -0.4494150985951488 0  0.5961535777081708 -1.513981552976991 0  -1.155820029223008 -1.788206080984148 0  -0.5739118932832465 -0.1546742493915142 0  -0.5841946679650327 0.5176002763498678 0  -2.002380170241069 -0.07419668689925465 0  -0.03177424103969387 0.8573021184182579 0  -1.376401625565553 0.4768684561592523 0  0.5446161581347397 0.6033190926261104 0  1.992431795481023 -0.793746501771632 0  -1.101529318263294 1.009266165873911 0  0.4777736752683002 1.403069038624916 0  0.9499359658978213 1.092391094106796 0  -0.08064855419466631 1.487359458457734 0  -0.6223953252211549 1.334430887043813 0  -0.4579047357026846 -1.557808107192135 0  0.5225488475728859 -2.126362971240531 0  -1.489130854171014 -1.235241738543277 0  -0.5997546080036125 -2.08949703851133 0  1.631188272076354 -0.4529703725694985 0  -0.4672319142420903 -1.029648633635514 0  -0.01519127363813061 -1.892743659895243 0  1.724408328619438 -1.339040055389493 0  -1.724180804427065 0.2558266826443908 0  -1.585771933942141 -1.52315461740253 0  -0.1800054955186547 -1.650538729549834 0  1.89558850964261 1.072871292221778 0  -1.620702681107274 -0.4946218772040464 0  2.15392435908057 0.1806784482685563 0  0.8612739973650601 -2.021
[...]
<PointData  Vectors="f_3705-0"> 
<DataArray  type="Float64"  Name="f_3705-0"  NumberOfComponents="3" format="ascii">2.8541487324955307e-03 -7.9227990418288471e-02 0.0000000000000000e+00  1.7253649113571357e-02 -8.8157281609639954e-02 0.0000000000000000e+00  3.3569471901015217e-02 -9.9165161101037791e-02 0.0000000000000000e+00  5.4889042938690284e-02 -1.0854956823359782e-01 0.0000000000000000e+00  7.7993310575595262e-02 -1.1039647973639682e-01 0.0000000000000000e+00  1.0315056948626250e-01 -1.1390266900899884e-01 0.0000000000000000e+00  1.3109551129585484e-01 -1.1152194715908757e-01 0.0000000000000000e+00  1.6049437581719261e-01 -1.0794795368687292e-01 0.0000000000000000e+00  1.7870638292077129e-01 -9.6776453062126386e-02 0.0000000000000000e+00  1.8164109409119794e-01 -7.0056501189996331e-02 0.0000000000000000e+00  1.7436539238458043e-01 -3.7115987892109875e-02 0.0000000000000000e+00  1.5565418336729026e-01 -1.4067729046728220e-02 0.0000000000000000e+00  1.2876315604223473e-01 7.1324651874185288e-03 0.0000000000000000e+00  9.7249587914576441e-02 2.5895406137134345e-02 0.0000000000000000e+00  5.6163966787091076e-02 4.1204940936211382e-02 0.0000000000000000e+00  2.3245077553036564e-03 5.4525500702125113e-02 0.0000000000000000e+00  -5.5601795649905535e-02 4.3586901119185457e-02 0.0000000000000000e+00  -9.2584246564029138e-02 2.3658708660458185e-02 0.0000000000000000e+00  -1.2309081040016208e-01 6.9746520413941039e-03 0.0000000000000000e+00  -1.5118036259458684e-01 -1.7063669316878336e-02 0.0000000000000000e+00  -1.7349593135052799e-01 -4.4995949966615517e-02 0.0000000000000000e+00  -1.8067122311448616e-01 -6.6462277200773648e-02 0.0000000000000000e+00  -1.7648774758684652e-01 -9.3312462727522333e-02 0.0000000000000000e+00  -1.5885303513839807e-01 -1.1300165065087986e-01 0.0000000000000000e+00  -1.3258921394222564e-01 -1.1832213670884215e-01 0.0000000000000000e+00  -1.0424354261818723e-01 -1.1737322942546188e-01 0.0000000000000000e+00  -7.7877599847791731e-02 -1.1732680499954996e-01 0.0000000000000000e+00  -5.5834810863266734e-02 -1.1317844262186282e-01 0.0000000000000000e+00  -3.5504065493977451e-02 -1.0656787248613880e-01 0.0000000000000000e+00  -1.5616668099572373e-02 -9.3849988241037713e-02 0.0000000000000000e+00  1.0833630316983894e-04 -8.3697771499804688e-02 0.0000000000000000e+00  1.2384406900164764e-02 -7.1360716656277801e-02 0.0000000000000000e+00  2.2818678225473277e-02 -5.6015503703543565e-02 0.0000000000000000e+00  3.1161658479169463e-02 -4.3769924535247882e-02 0.0000000000000000e+00  3.8423751758625030e-02 -3.2879967862124673e-02 0.0000000000000000e+00  4.0431645853485861e-02 -1.9014523837436761e-02 0.0000000000000000e+00  4.4546808508957147e-02 -6.7657752339004770e-03 0.0000000000000000e+00  4.5104010636877565e-02 5.0233838198457271e-03 0.0000000000000000e+00  4.2831019422837263e-02 1.7705350258135952e-02 0.0000000000000000e+00  3.8619944611713843e-02 2.5640824082450442e-02 0.0000000000000000e+00  3.1274051160855784e-02 3.3468462831281645e-02 0.0000000000000000e+00  2.2255587348026254e-02 3.8545555924891617e-02 0.0000000000000000e+00  1.3723586682895670e-02 4.3609210665958520e-02 0.0000000000000000e+00  6.5512442544878816e-03 4.4017136344962529e-02 0.0000000000000000e+00  1.5212004443516079e-03 4.9459675760378338e-02 0.0000000000000000e+00  -7.0846451740907276e-03 4.8371962482206439e-02 0.0000000000000000e+00  -1.7589304493404956e-02 4.5578202620114548e-02 0.0000000000000000e+00  -2.7066299851417862e-02 3.9947434935703040e-02 0.0000000000000000e+00  -3.3573341661146248e-02 3.1701249635870656e-02 0.0000000000000000e+00  -3.9467912005883662e-02 2.3435731691136569e-02 0.0000000000000000e+00  -4.3368183112079579e-02 1.5899813777306246e-02 0.0000000000000000e+00  -4.4800183549317120e-02 6.1654827916783556e-03 0.0000000000000000e+00  -4.5145262769153351e-02 -4.8768360448421819e-03 0.0000000000000000e+00  -4.5175426763803497e-02 -2.0299464020017009e-02 0.0000000000000000e+00  -4.0953393997586116e-02 -3.1976160006562830e-02 0.0000000000000000e+00  -3.3688134422809123e-02 -4.5994709977598851e-02 0.0000000000000000e+00  -2.4792799978612626e-02 -5.8957609042341146e-02 0.0000000000000000e+00  -8.8119184790278176e-03 -7.1129360443346251e-02 0.0000000000000000e+00  1.3388567001640178e-01 9.0942547093724108e-04 0.0000000000000000e+00  1.3347809571127986e-01 1.0770660443387483e-02 0.0000000000000000e+00  1.3230245179839278e-01 2.0576753978555715e-02 0.0000000000000000e+00  1.2989216363145964e-01 3.2015244919846704e-02 0.0000000000000000e+00  1.2664654614509885e-01 4.3426116886718900e-02 0.0000000000000000e+00  1.2359470483967813e-01 5.1476810387978890e-02 0.0000000000000000e+00  1.1813077192893498e-01 6.3027467379220173e-02 0.0000000000000000e+00  1.1325976712213570e-01 7.1477316398121410e-02 0.0000000000000000e+00  1.0706050171445004e-01 8.0470418014230452e-02 0.0000000000000000e+00  1.0026728372313630e-01 8.8797835522038515e-02 0.0000000000000000e+00  9.2698259119902066e-02 9.6668941498661232e-02 0.0000000000000000e+00  8.5383606310752383e-02 1.0314415186079884e-01 0.0000000000000000e+00  7.5179050232370259e-02 1.1079835068484090e-01 0.0000000000000000e+00  6.7888446697771873e-02 1.1541170251030115e-01 0.0000000000000000e+00  5.7361029158322793e-02 1.2086990392299812e-01 0.0000000000000000e+00  4.6467950441554155e-02 1.2557969308745578e-01 0.0000000000000000e+00  3.8281294512714871e-02 1.2831104833536028e-01 0.0000000000000000e+00  2.5907453598505291e-02 1.3138097934200527e-01 0.0000000000000000e+00  1.6144833049672836e-02 1.3295327224606138e-01 0.0000000000000000e+00  6.2854136078921412e-03 1.3376266625587616e-01 0.0000000000000000e+00  -6.2920033900840762e-03 1.3375736048341277e-01 0.0000000000000000e+00  -1.6033893175416480e-02 1.3297639894004598e-01 0.0000000000000000e+00  -2.6796503535746537e-02 1.3123676682471996e-01 0.0000000000000000e+00  -3.7371780447696137e-02 1.2861510039443294e-01 0.0000000000000000e+00  -4.6625099468487571e-02 1.2552571640162852e-01 0.0000000000000000e+00  -5.7351432234094307e-02 1.2088643683569669e-01 0.0000000000000000e+00  -6.6907014765238332e-02 1.1586925372510769e-01 0.0000000000000000e+00  -7.6025220458925236e-02 1.1013149298870289e-01 0.0000000000000000e+00  -8.4638437701352126e-02 1.0366102385814110e-01 0.0000000000000000e+00  -9.2695496696798316e-02 9.6477168914011605e-02 0.0000000000000000e+00  -1.0082961886578112e-01 8.8106510276256461e-02 0.0000000000000000e+00  -1.0706823739812807e-01 8.0450194341800868e-02 0.0000000000000000e+00  -1.1268542194819120e-01 7.2323034516227708e-02 0.0000000000000000e+00  -1.1846042979676119e-01 6.2163280868173784e-02 0.0000000000000000e+00  -1.2359941831261931e-01 5.1468689028121926e-02 0.0000000000000000e+00  -1.2664942971738485e-01 4.3419068171399164e-02 0.0000000000000000e+00  -1.3024510974213710e-01 3.1004937849035824e-02 0.0000000000000000e+00  -1.3197633385993329e-01 2.2529442869138185e-02 0.0000000000000000e+00  -1.3353252155090448e-01 9.7121524614459716e-03 0.0000000000000000e+00  -1.3388047663027131e-01 1.0605685170510179e-03 0.0000000000000000e+00  -1.3334222001070092e-01 -1.1837717045022587e-02 0.0000000000000000e+00  -1.3232327478915432e-01 -2.0428209826002713e-02 0.0000000000000000e+00  -1.2973009945524652e-01 -3.3085990006407606e-02 0.0000000000000000e+00  -1.2732289127107299e-01 -4.1384416430635285e-02 0.0000000000000000e+00  -1.2274897521540645e-01 -5.3455294584023726e-02 0.0000000000000000e+00  -1.1904362009896421e-01 -6.1268461348655850e-02 0.0000000000000000e+00  -1.1257689106655468e-01 -7.2466236188438796e-02 0.0000000000000000e+00  -1.0768287331225701e-01 -7.9563215207860707e-02 0.0000000000000000e+00  -9.9617791461118335e-02 -8.9463092639498559e-02 0.0000000000000000e+00  -9.2867970087171736e-02 -9.6498486164325284e-02 0.0000000000000000e+00  -8.4601415571730870e-02 -1.0382278983753174e-01 0.0000000000000000e+00  -7.6816868273964306e-02 -1.0967058269184565e-01 0.0000000000000000e+00  -6.6023456308510003e-02 -1.1648110611760651e-01 0.0000000000000000e+00  -5.8367141008256074e-02 -1.2050480331895817e-01 0.0000000000000000e+00  -4.6645930250736156e-02 -1.2551615963110963e-01 0.0000000000000000e+00  -3.7256512170469741e-02 -1.2863848825742161e-01 0.0000000000000000e+00  -2.7674756680544279e-02 -1.3101059382005878e-01 0.0000000000000000e+00  -1.6136729372387131e-02 -1.3285490386188345e-01 0.0000000000000000e+00  -4.4956741948182517e-03 -1.3382744835223867e-01 0.0000000000000000e+00  5.3943615798078288e-03 -1.3381582298963293e-01 0.0000000000000000e+00  1.5247645911069965e-02 -1.3303184093497658e-01 0.0000000000000000e+00  2.7665342673207059e-02 -1.3101819448834540e-01 0.0000000000000000e+00  3.7257753724967549e-02 -1.2863967415150973e-01 0.0000000000000000e+00  4.6645243169347296e-02 -1.2551313735795777e-01 0.0000000000000000e+00  5.7359377411174535e-02 -1.2086640720733911e-01 0.0000000000000000e+00  6.7888974856246037e-02 -1.1540543466143205e-01 0.0000000000000000e+00  7.5169247028349054e-02 -1.1080245630014383e-01 0.0000000000000000e+00  8.5378059913250412e-02 -1.0314394325955757e-01 0.0000000000000000e+00  9.2696473724650966e-02 -9.6666027579067823e-02 0.0000000000000000e+00  1.0025772552986247e-01 -8.8800018264258748e-02 0.0000000000000000e+00  1.0706083821039455e-01 -8.0472122835008389e-02 0.0000000000000000e+00  1.1325272132696231e-01 -7.1475733240927847e-02 0.0000000000000000e+00  1.1812483048829646e-01 -6.3034794415874562e-02 0.0000000000000000e+00  1.2310074116885124e-01 -5.2461653050682899e-02 0.0000000000000000e+00  1.2692812926246802e-01 -4.2373216044941694e-02 0.0000000000000000e+00  1.2992322160041439e-01 -3.2026812003634116e-02 0.0000000000000000e+00  1.3204736202019474e-01 -2.1460316109666748e-02 0.0000000000000000e+00  1.3334993845611970e-01 -1.0745079993850746e-02 0.0000000000000000e+00  -2.1195018645566192e-03 8.4699445952087823e-02 0.0000000000000000e+00  -1.9049294497881452e-03 -5.1040836783260775e-02 0.0000000000000000e+00  -8.4039749951727791e-03 -6.4389139594175901e-02 0.0000000000000000e+00  1.3529298591206329e-02 -6.5926371910479550e-02 0.0000000000000000e+00  -2.8417493214942018e-02 -5.3367899266004951e-02 0.0000000000000000e+00  3.3696734429973951e-02 -5.0880959726088824e-02 0.0000000000000000e+00  -5.0653606754172742e-02 -5.2236268888063313e-02 0.0000000000000000e+00  5.7343810460325752e-02 -4.7595772094524279e-02 0.0000000000000000e+00  -8.2004271341775362e-02 -2.8923293155428315e-02 0.0000000000000000e+00  8.7447847239446999e-02 -1.5554040886957859e-02 0.0000000000000000e+00  -9.1305954902600878e-02 1.9373376364348677e-02 0.0000000000000000e+00  8.7444613607248395e-02 3.4060657357918418e-02 0.0000000000000000e+00  -6.3570075523338390e-02 6.8858687395290719e-02 0.0000000000000000e+00  5.1234596660191978e-02 7.8301838293992732e-02 0.0000000000000000e+00  -8.6550437359671425e-03 9.2469233463683284e-02 0.0000000000000000e+00  2.5319891513676199e-02 -9.5390710599417672e-02 0.0000000000000000e+00  1.8247387824772591e-02 2.8705477714496313e-02 0.0000000000000000e+00  -1.3978025440717077e-02 2.5530030475560715e-02 0.0000000000000000e+00  -1.5322381115789412e-02 -9.2704795307153295e-02 0.0000000000000000e+00  -4.9856358305545995e-02 7.7690945356985688e-02 0.0000000000000000e+00  4.7275774941749615e-02 8.2464042978548938e-02 0.0000000000000000e+00  -2.0645192257250131e-02 6.1258946636063814e-02 0.0000000000000000e+00  6.6353903757690819e-02 -6.7861770463698776e-02 0.0000000000000000e+00  -6.3153986325985303e-02 -7.7732337910189866e-02 0.0000000000000000e+00  -8.2101869722917137e-02 -5.0968937798396403e-02 0.0000000000000000e+00  3.3282735607196204e-02 -1.7434116728209121e-02 0.0000000000000000e+00  -4.4320698228516898e-02 -3.1415237352710020e-02 0.0000000000000000e+00  1.0537344324502330e-01 -1.4917601137731561e-02 0.0000000000000000e+00  -3.2065925010505154e-02 -5.5889941278356635e-02 0.0000000000000000e+00  9.0157200470741106e-02 -4.2893622897788350e-02 0.0000000000000000e+00  5.3979894099650504e-02 -5.8232009046144416e-02 0.0000000000000000e+00  -1.0822177540602981e-01 -2.0269588015767521e-02 0.0000000000000000e+00  1.6668630054323553e-02 6.2355643577397805e-02 0.0000000000000000e+00  -1.1157263865348771e-01 2.1111129364245421e-02 0.0000000000000000e+00  1.0562219462615261e-02 -1.0931768446187651e-01 0.0000000000000000e+00  2.8422422521077319e-02 -6.3814655902078993e-02 0.0000000000000000e+00  5.3881220491825088e-02 -9.8520022447969813e-02 0.0000000000000000e+00  -4.2587949761398132e-02 -1.0305998158190191e-01 0.0000000000000000e+00  -9.0426896889078984e-02 7.0740422476982048e-02 0.0000000000000000e+00  9.2442690291788865e-02 -5.9938326144177406e-02 0.0000000000000000e+00  -1.9319294293935255e-02 -6.8855176253988459e-02 0.0000000000000000e+00  1.0792051344309547e-01 3.4372103623584539e-02 0.0000000000000000e+00  -4.0352297310140041e-02 1.0652905926120264e-01 0.0000000000000000e+00  -9.0670279263798101e-02 -6.2852269785452095e-02 0.0000000000000000e+00  4.8712351019823887e-02 -5.1992757185634619e-02 0.0000000000000000e+00  -2.3597872720314772e-02 -6.7022561436818368e-02 0.0000000000000000e+00  7.9340038712708644e-02 8.2630795991552916e-02 0.0000000000000000e+00  2.3721809157834589e-02 1.1152360405737852e-01 0.0000000000000000e+00  -6.3599483559351938e-02 -3.1497530148149197e-02 0.0000000000000000e+00  6.7873013644674879e-02 -1.8007415458788645e-02 0.0000000000000000e+00  1.1060580952505121e-01 -2.8165944865161430e-02 0.0000000000000000e+00  -1.0570441886070742e-01 -3.9597385998873372e-02 0.0000000000000000e+00  5.6577780948404398e-02 -5.6703590174943218e-02 0.0000000000000000e+00  -6.7356268005516320e-02 2.1335759397728998e-02 0.0000000000000000e+00  6.2283944698862850e-02 3.4392561930731994e-02 0.0000000000000000e+00  2.0643249225025910e-02 6.7396687453844292e-02 0.0000000000000000e+00  -3.1986295314570139e-02 6.0082984445887652e-02 0.0000000000000000e+00  -1.1970048869197056e-01 4.4461318900631637e-03 0.0000000000000000e+00  -7.1643044403403924e-02 -6.1981603292390955e-02 0.0000000000000000e+00  1.1867019842258247e-01 1.4081956283070969e-02 0.0000000000000000e+00  -1.3836728271011109e-02 1.4469385023665311e-02 0.0000000000000000e+00  -1.1053593853117548e-01 5.2791800015186643e-02 0.0000000000000000e+00  -1.3823440968061602e-02 -6.0395018624892868e-02 0.0000000000000000e+00  -6.9686241666175930e-02 -6.9487784021987423e-02 0.0000000000000000e+00  -7.4326710246640060e-02 9.7655645779048908e-02 0.0000000000000000e+00  9.5961348404949118e-02 7.6235003530004272e-02 0.0000000000000000e+00  -5.7767791256805373e-03 -7.7590340764337420e-02 0.0000000000000000e+00  1.1546868784008039e-02 -7.3232329740783489e-02 0.0000000000000000e+00  -9.6122370323512389e-03 -1.1897677906536173e-01 0.0000000000000000e+00  4.4813414667840064e-02 -5.0552177766928705e-02 0.0000000000000000e+00  -1.2948629054717487e-02 1.2222534683828047e-01 0.0000000000000000e+00  4.7118046707936387e-02 1.1300884733426597e-01 0.0000000000000000e+00  7.5246892388964551e-02 -9.0218400400942866e-02 0.0000000000000000e+00  -2.6475625832498944e-02 -1.5402385938344058e-02 0.0000000000000000e+00  -1.5920124642667743e-02 9.6820256702061638e-02 0.0000000000000000e+00  -8.4056854645100129e-05 -6.1111942248032007e-02 0.0000000000000000e+00  -6.4802297851979940e-02 -9.9598105129442518e-02 0.0000000000000000e+00  3.7837672516485538e-02 -1.3684030463304363e-02 0.0000000000000000e+00  -3.4021896902090301e-02 1.7772184839702360e-02 0.0000000000000000e+00  -9.9498377962633069e-02 -3.3981672725147495e-02 0.0000000000000000e+00  -4.6437361160384435e-03 6.0898688470462696e-02 0.0000000000000000e+00  -4.3188941913455084e-02 -5.5398130408028441e-02 0.0000000000000000e+00  3.2905841739527396e-02 2.2979904107068357e-02 0.0000000000000000e+00  1.0638976204877620e-01 -5.0001832380643055e-02 0.0000000000000000e+00  -6.7153476932907213e-02 -8.6366915928210303e-03 0.0000000000000000e+00  3.9240720908319073e-02 4.4489079372496243e-02 0.0000000000000000e+00  6.2210245819909464e-02 3.2038421646195378e-04 0.0000000000000000e+00  -6.1770525977427751e-03 5.9965560593212619e-02 0.0000000000000000e+00  -4.9743955162764579e-02 3.6308194502978522e-02 0.0000000000000000e+00  1.9687401264421407e-03 -5.6730248687046493e-02 0.0000000000000000e+00  2.8015289620589762e-02 -1.2018762375107735e-01 0.0000000000000000e+00  -6.7973256621427655e-02 -6.5977579323363997e-02 0.0000000000000000e+00  -3.3293603253717462e-02 -1.1770123412246010e-01 0.0000000000000000e+00  3.7796649949606027e-02 -5.1265575332504407e-02 0.0000000000000000e+00  8.3147899743414397e-02 -4.2629505352048451e-02 0.0000000000000000e+00  -1.2467558485476740e-03 -8.9796059204303516e-02 0.0000000000000000e+00  9.7103509738860463e-02 -7.4302032145288938e-02 0.0000000000000000e+00  -7.0225952341321868e-02 -4.2264172915150597e-02 0.0000000000000000e+00  -9.0266613128909504e-02 -8.4571537492298399e-02 0.0000000000000000e+00  4.1873424374534621e-04 -5.5834365082886792e-02 0.0000000000000000e+00  1.1911581580253164e-01 3.6887045934588067e-02 0.0000000000000000e+00  -3.6266437436940302e-02 -5.3423603653258094e-02 0.0000000000000000e+00  1.2042809902175301e-01 -1.1961676621078441e-02 0.0000000000000000e+00  4.7940956116923943e-02 -1.1484587992609729e-01 0.0000000000000000e+00  2.7143863016294307e-02 -5.3933928778307126e-02 0.0000000000000000e+00  1.8288192776267597e-02 -6.0144728423410614e-02 0.0000000000000000e+00  4.3447841243747596e-03 -6.9369780119437632e-02 0.0000000000000000e+00  1.3996389622818035e-02 -7.3764203908296799e-02 0.0000000000000000e+00  -1.0911312179865740e-01 -5.6912614524584265e-02 0.0000000000000000e+00  -6.2405458747642395e-03 9.2435277961105150e-02 0.0000000000000000e+00  -4.0005126684027788e-02 -7.6812777194744858e-02 0.0000000000000000e+00  5.4362091511117192e-02 6.6049836105400613e-03 0.0000000000000000e+00  3.3758850655762250e-02 -4.9834488868173460e-02 0.0000000000000000e+00  1.0683869189206219e-01 6.6781103167858402e-02 0.0000000000000000e+00  -1.2322942532909605e-01 3.3441079337605546e-02 0.0000000000000000e+00  -1.2489844212296099e-01 -1.3772444197908004e-02 0.0000000000000000e+00  -1.1416415894163710e-01 -4.5455150046003333e-02 0.0000000000000000e+00  3.2426181374281202e-03 -1.4350253045585312e-02 0.0000000000000000e+00  -4.1700158632445909e-02 -5.2318733588415010e-02 0.0000000000000000e+00  -8.8308987816444015e-02 -1.3765851271858896e-02 0.0000000000000000e+00  9.7502840989002176e-03 -3.8805880642732708e-02 0.0000000000000000e+00  -1.3999745268020820e-02 -2.9992053912803643e-02 0.0000000000000000e+00  6.3677434243867084e-02 9.5484583087416280e-02 0.0000000000000000e+00  1.2051656612852513e-01 -3.4337974470640222e-02 0.0000000000000000e+00  9.6475971196585700e-02 7.5409718317438715e-02 0.0000000000000000e+00  -5.8917172070727046e-02 9.8180812162613762e-02 0.0000000000000000e+00  4.8502467114553964e-02 -8.0583932223974808e-02 0.0000000000000000e+00  -1.1783310295194577e-01 5.4126556046657948e-02 0.0000000000000000e+00  -9.8804052368875087e-02 8.2080788337241500e-02 0.0000000000000000e+00  -1.0781543616868045e-01 -7.4971188190365412e-02 0.0000000000000000e+00  1.2594715800534421e-02 7.0767320028837885e-02 0.0000000000000000e+00  -3.7916465455371199e-03 7.1030455041628152e-02 0.0000000000000000e+00  -2.0832682151711540e-03 7.7620158428055627e-02 0.0000000000000000e+00  2.8680241401945687e-02 -8.3680343767137330e-02 0.0000000000000000e+00  9.4874826618864233e-02 -8.1335389103167899e-02 0.0000000000000000e+00  -3.5365363243367733e-02 3.3568142381283667e-02 0.0000000000000000e+00  -8.4002660078931715e-02 -2.2341043471046457e-02 0.0000000000000000e+00  -8.0932152044005459e-02 -9.5546441051259395e-02 0.0000000000000000e+00  -1.5506543054720342e-02 6.9043900908078590e-02 0.0000000000000000e+00  2.6480105647859863e-03 6.9358188634884910e-02 0.0000000000000000e+00  -2.3934645440583244e-02 -5.3374994458164363e-02 0.0000000000000000e+00  -1.5186831405944217e-02 -3.3644711602639626e-02 0.0000000000000000e+00  -1.0872148233814044e-01 1.8040404109275212e-03 0.0000000000000000e+00  7.1842609194619850e-02 -4.8721312789820177e-02 0