<?xml version="1.0"?>
<VTKFile type="UnstructuredGrid"  version="0.1"  >
<UnstructuredGrid>
<Piece  NumberOfPoints="1500" NumberOfCells="2830">
<Points>
<DataArray  type="Float64"  NumberOfComponents="3"  format="ascii">-0.9927044598295816 0.3026309998790867 0  -0.9879241728256105 0.191971100732743 0  -0.970452713468092 0.08228904817948585 0  -0.9408141597574979 -0.02485307985588213 0  -0.8985682087297772 -0.129194999841047 0  -0.8447132725041525 -0.2280466566332142 0  -0.7805559601690174 -0.3190160675611796 0  -0.7062957276840304 -0.4025950726757179 0  -0.6258606629777062 -0.4750918774821037 0  -0.5420596403041027 -0.5359836388930799 0  -0.4563236181724493 -0.5858680632622406 0  -0.3688772664092804 -0.6259733123372468 0  -0.2784514225551338 -0.6573280891456857 0  -0.1867519660587807 -0.6795256787701693 0  -0.09412199227429367 -0.6929607069417075 0  -0.006472752624943198 -0.6973438008698937 0  0.0770893535279967 -0.6938238470541601 0  0.1684236525688568 -0.6811854391807981 0  0.2618625714614737 -0.6591330648678653 0  0.3527713230620681 -0.6282339405847277 0  0.4401935071840463 -0.5888050888809657 0  0.5238594308411836 -0.5409430196276078 0  0.6054581705725625 -0.4829396669406322 0  0.6850408024184291 -0.4131119407451816 0  0.7585658098867695 -0.3332348884812813 0  0.8241068248845437 -0.2441312392402445 0  0.8801899187769004 -0.1465335445397227 0  0.9248087107084135 -0.0429219934373614 0  0.9567232906599885 0.0632972475426455 0  0.9765490023255566 0.1736272405840691 0  0.9836221606664508 0.2847535817381469 0  0.9779561191428928 0.3951478525778214 0  0.9599709607027652 0.5037566155271531 0  0.929632793938077 0.6103451904394368 0  0.8874468410357709 0.7126021072090151 0  0.8345314820788536 0.8085511897688981 0  0.7710243050751128 0.898223100575282 0  0.6977199952519938 0.9803189183001755 0  0.6159050922787934 1.053268333381165 0  0.5261940551199935 1.117094194768243 0  0.430109193546783 1.170477217109222 0  0.3287079822568003 1.212672671722007 0  0.222648248356096 1.243692487877815 0  0.1138360206034695 1.262677863724181 0  0.004671751975433329 1.269695385609567 0  -0.1047939852088967 1.26457484325027 0  -0.2138870356265115 1.24742276048464 0  -0.3205945302604239 1.218118808802949 0  -0.4229628141998941 1.177339238449851 0  -0.5197143512647338 1.125636706852507 0  -0.6098602265310007 1.063886239682895 0  -0.6934990015443977 0.9918328096476442 0  -0.7680136147699633 0.9114596584909576 0  -0.8331376451033596 0.8233576462952557 0  -0.8881896270087692 0.7283342828224004 0  -0.9322744456107577 0.6268978248540659 0  -0.9646967709554487 0.5213306953799441 0  -0.9849540666846803 0.4126326081663672 0  2.740817819293897 9.083709129479828e-07 0  2.733165522104062 0.2048218764035026 0  2.710219101652364 0.4085030811732525 0  2.672110625296887 0.6098872733021767 0  2.619061224953093 0.8078728669367344 0  2.551365407692471 1.001337063885232 0  2.469388918556713 1.189194115927475 0  2.373625321032247 1.370418399132664 0  2.264583414490562 1.543966704895787 0  2.142866089860455 1.708879897116369 0  2.009174965600542 1.86423411552712 0  1.864231449297753 2.009160573138981 0  1.708886261866947 2.142862867610353 0  1.543961068357746 2.264571276233672 0  1.370416150926955 2.373629181848703 0  1.18920415912134 2.469403140884394 0  1.001340962894256 2.551370195959578 0  0.8078754795074743 2.619063326745939 0  0.6098881835417183 2.672114970447361 0  0.4085058503008308 2.710219203831216 0  0.2048212124494825 2.733167991160034 0  2.986277701398754e-06 2.740832194326828 0  -0.2048172594549943 2.733167840212574 0  -0.4084985713260926 2.710208664029389 0  -0.6098927711325329 2.672115688430218 0  -0.8078701630337518 2.619053232922952 0  -1.001340914789187 2.55136738993385 0  -1.189199932488486 2.469404921361757 0  -1.370417038579071 2.373630616292829 0  -1.543959693119563 2.264572068818552 0  -1.708874376753375 2.142858317260536 0  -1.864232696888244 2.009161067240432 0  -2.009174341875721 1.864235851320454 0  -2.142864760430514 1.708883343211439 0  -2.264577396711709 1.543965706292974 0  -2.373627715334461 1.370417663244596 0  -2.469405778458025 1.189194572307007 0  -2.551365414585891 1.001336241705012 0  -2.619061870091786 0.8078735716603921 0  -2.672109250052724 0.6098956120019801 0  -2.71021644989701 0.4084948830128978 0  -2.733164642577354 0.2048221771149362 0  -2.740818099855 -4.471116318393539e-07 0  -2.733164106720797 -0.2048262794721694 0  -2.710216342163918 -0.4084981358987355 0  -2.672108789835584 -0.6098975064769001 0  -2.619060056738162 -0.8078767643086067 0  -2.551367949672937 -1.001331210769668 0  -2.469398918207568 -1.189204480622972 0  -2.373629004788899 -1.370411073702981 0  -2.264578872833432 -1.543964203375069 0  -2.142855411939058 -1.708871963187217 0  -2.009160213265245 -1.864229507333694 0  -1.864232022888423 -2.009161632199097 0  -1.708871493600639 -2.142856351306416 0  -1.54395756828361 -2.264570746797338 0  -1.370418954695318 -2.373626934327994 0  -1.189195462293581 -2.469392630645936 0  -1.001335428299924 -2.551368850938986 0  -0.8078803663279208 -2.619060972500705 0  -0.6098861321383192 -2.672112825490998 0  -0.4085004476559668 -2.710222170969577 0  -0.2048203433724995 -2.733164457711814 0  -2.24337941090824e-06 -2.74083087698326 0  0.2048252815092351 -2.733167527760601 0  0.4084964226538882 -2.710205962144851 0  0.6098905603734127 -2.672101733829709 0  0.8078777306080827 -2.619062851982846 0  1.001336388747877 -2.551367521342059 0  1.189192687268051 -2.46940808903732 0  1.370408156848829 -2.373618087493607 0  1.54395813184105 -2.26456954904364 0  1.7088730734232 -2.142858306820961 0  1.864238293580159 -2.009171439561385 0  2.009170196875858 -1.864236604532697 0  2.142868594555784 -1.708881100440055 0  2.264579105737013 -1.54396370940499 0  2.373630479666037 -1.370409779495786 0  2.469400945424187 -1.189202256922302 0  2.55136921247517 -1.001337333239872 0  2.619061192099682 -0.8078672393068389 0  2.672111657367588 -0.6098861868679639 0  2.710215446487303 -0.4085037521862219 0  2.733150739361932 -0.2048225376750595 0  0.08826426172622735 -1.7169682045687 0  -0.006368845691958658 0.2952013042875597 0  -0.9194510466889821 -1.482868592813892 0  1.013218494651492 -1.424576337988053 0  1.644437936062545 -0.727619280700931 0  -1.645875061955951 -0.7305665581818711 0  1.858262391243245 0.1961578264948441 0  -1.863453782558279 0.1960128090972987 0  1.650032193434219 1.000899822572249 0  -1.646588803046022 1.018400977062961 0  1.158659457921682 1.599460919695359 0  -1.140373636836247 1.615831549015164 0  0.4806188228483839 1.942035135326892 0  -0.4594342446517877 1.948082593117256 0  -0.5141082314422607 -2.006492801455809 0  0.6860219712589423 -1.979349200498666 0  -1.587239184270486 -1.370948281262557 0  1.62485000026263 -1.401852926617916 0  2.132941332686058 -0.4092925205286183 0  -2.133154014529696 -0.410402429404131 0  -0.2469380631050336 -1.260147214307356 0  0.4276984864110131 -1.247546067458798 0  -0.9859659251022388 -0.9269162312827244 0  0.9297268028691709 -0.90995596242651 0  -1.024378098097084 -1.98824402314124 0  -0.05125132310207453 -2.227368912350636 0  0.4741547194759005 0.4327935161833888 0  -0.5052985697796616 0.2804716789652683 0  1.186904177641566 -1.905405267149239 0  0.3358242304161265 -0.04896139875277439 0  0.1030275320790546 0.7721024997025887 0  -0.2207467640001853 -0.1317172492664539 0  -1.466074937283983 -0.2120974727650656 0  -2.085872027948133 0.7020374716803311 0  1.458610360158437 -0.2105807716847703 0  2.097906372230455 0.7240261299451214 0  1.987696357491858 -1.080289050392399 0  -1.981905736681407 -1.088927671680826 0  0.01214546795902674 2.208259720120793 0  -0.03809174752044265 1.735933659554831 0  1.6523787234119 1.511388241984946 0  -1.635543377509427 1.52935510439682 0  -1.483150155551231 0.5259877438303024 0  1.472727818595195 0.5156151929991244 0  2.28575903156411 0.02053470275285053 0  -0.9156101142277716 2.085810554597509 0  -2.287416709698185 0.01749785993901119 0  1.159719954940412 -0.5417300625793149 0  0.9204321011228476 2.095336862853343 0  -1.221118219601896 -0.5705438653545631 0  1.193799165330182 1.119410884408862 0  -1.163778658861226 1.147118031523789 0  -1.302897295568312 -1.677123724579476 0  -0.6393237413662975 -1.157617578439055 0  1.355960411948419 -1.050593611276577 0  0.7053085494105091 1.537554638926209 0  -0.677022414237055 1.547456146623614 0  1.990749603538678 1.241438254350916 0  -0.3690060261230645 0.7039783374287629 0  -2.051985453725967 1.114728821439629 0  0.3766958595841641 -2.28035354324063 0  -1.440726285366901 1.867883360479721 0  -0.5216066035928973 -1.585209329377862 0  1.45969561758477 1.850405603278602 0  0.4435530691517385 2.329998182447775 0  -0.4433930335192499 2.333660345852022 0  0.6548793843977154 -1.580693987998251 0  -1.479415593098933 0.1543865867690648 0  0.3387250613972556 1.594576326596603 0  1.479384540422029 0.1501849421419875 0  2.322919119671177 0.4088040739247729 0  -2.232176320805097 -0.7840985868539886 0  -1.214861867315005 -1.242870204861658 0  0.07823053025143617 -1.08874814101654 0  -2.194468569523816 0.3616909571485137 0  -0.3917183224781422 -2.350833019389946 0  -1.33425793431501 0.8404270859195242 0  0.9607320751136519 -2.206174727577115 0  0.0680855729086753 -0.3027555345644507 0  -1.7020567874484 -1.703232280725547 0  2.234079254804729 -0.7812856103953213 0  1.551481652042208 -1.804437903475375 0  1.76704382884372 -0.3996179859325537 0  -1.769141586555853 -0.4047735679085919 0  -0.783264958474246 -2.259237028923027 0  -1.337402287096942 -0.8927252740524427 0  1.968649057525496 -0.1171895487882686 0  -1.969982105314843 -0.1183937533247395 0  -0.1888875913977527 -1.911057007204323 0  1.240862510850634 0.7697568050428525 0  -0.3353869252349023 1.564688315410204 0  0.6270284131191616 0.1170913654923982 0  1.961765712781935 -1.411763102202209 0  -0.5515873763688374 -0.06395843184664325 0  0.4070929831009981 -1.789828409355869 0  -1.93529588657452 -1.432920624428407 0  -1.650600564632347 -1.053330086527911 0  1.3279079393355
[...]
<PointData  Vectors="f_4841-0"> 
<DataArray  type="Float64"  Name="f_4841-0"  NumberOfComponents="3" format="ascii">4.8765300632792809e-04 -6.3627504664277731e-02 0.0000000000000000e+00  1.4992997584574142e-02 -7.3656123369222434e-02 0.0000000000000000e+00  3.1996919773549508e-02 -8.2726741381047991e-02 0.0000000000000000e+00  5.1210787659448517e-02 -8.9478066710597423e-02 0.0000000000000000e+00  7.3932605819818906e-02 -9.6174147002878047e-02 0.0000000000000000e+00  9.8426535697600057e-02 -9.8872178853528267e-02 0.0000000000000000e+00  1.2200518548296770e-01 -9.5487874420219651e-02 0.0000000000000000e+00  1.4514028715444610e-01 -8.8136159349634327e-02 0.0000000000000000e+00  1.5846440641232248e-01 -7.0441532240815730e-02 0.0000000000000000e+00  1.5890235087726828e-01 -4.6398932904942597e-02 0.0000000000000000e+00  1.4882843501687421e-01 -2.0530127419117333e-02 0.0000000000000000e+00  1.3159547977974514e-01 3.5061878117717926e-03 0.0000000000000000e+00  1.1044208578139672e-01 2.3316472776031640e-02 0.0000000000000000e+00  8.5093909608030358e-02 3.9096063122890740e-02 0.0000000000000000e+00  5.5777054212129834e-02 5.0418513601445343e-02 0.0000000000000000e+00  1.2442555309238434e-02 5.5692981909618605e-02 0.0000000000000000e+00  -3.8661064193726558e-02 5.2516766562708081e-02 0.0000000000000000e+00  -7.0900195541014968e-02 4.3095379664413833e-02 0.0000000000000000e+00  -9.6204410740078891e-02 2.8916721041338460e-02 0.0000000000000000e+00  -1.1720937340928073e-01 1.0662162011920252e-02 0.0000000000000000e+00  -1.3521440801885790e-01 -1.1291535506914115e-02 0.0000000000000000e+00  -1.4945697560614687e-01 -3.6875862942696534e-02 0.0000000000000000e+00  -1.5594681737505714e-01 -6.3382203736903606e-02 0.0000000000000000e+00  -1.4838966370189899e-01 -8.3867489268647441e-02 0.0000000000000000e+00  -1.3178895172428742e-01 -9.7646208310819743e-02 0.0000000000000000e+00  -1.0940857469283038e-01 -1.0377786174613635e-01 0.0000000000000000e+00  -8.4422811736184308e-02 -1.0244874125437667e-01 0.0000000000000000e+00  -6.0679506212827902e-02 -9.6516972821235184e-02 0.0000000000000000e+00  -4.0790046690543744e-02 -9.0934015124866291e-02 0.0000000000000000e+00  -2.2222577846620191e-02 -8.0292615534706652e-02 0.0000000000000000e+00  -6.6965444023111597e-03 -6.9822295590860770e-02 0.0000000000000000e+00  6.3210518583824401e-03 -5.9238151320567541e-02 0.0000000000000000e+00  1.6996761660927433e-02 -4.8255606037506581e-02 0.0000000000000000e+00  2.5214202709565682e-02 -3.5564804628095803e-02 0.0000000000000000e+00  3.1096091563272515e-02 -2.3093151714859043e-02 0.0000000000000000e+00  3.5568365013667128e-02 -1.2430030926359040e-02 0.0000000000000000e+00  3.7774682398604133e-02 -1.2653335235843998e-03 0.0000000000000000e+00  3.7551260957553671e-02 9.8059692696173158e-03 0.0000000000000000e+00  3.6445492851882748e-02 1.9169108327833057e-02 0.0000000000000000e+00  3.2971006197508354e-02 2.8231535338539535e-02 0.0000000000000000e+00  2.8368000034487934e-02 3.5818980108978500e-02 0.0000000000000000e+00  2.2968112039440752e-02 4.1863751563697885e-02 0.0000000000000000e+00  1.5365887774929577e-02 4.6813099011870279e-02 0.0000000000000000e+00  6.8727074912547084e-03 4.9954553207394101e-02 0.0000000000000000e+00  1.5850802551235055e-04 5.1116512014906385e-02 0.0000000000000000e+00  -6.6935472795957105e-03 5.0679961880687678e-02 0.0000000000000000e+00  -1.5189565182947005e-02 4.8338830750373180e-02 0.0000000000000000e+00  -2.3723711861664495e-02 4.3915762502261625e-02 0.0000000000000000e+00  -3.0309494902501993e-02 3.7978905345301239e-02 0.0000000000000000e+00  -3.4912673955480387e-02 3.0953677268083665e-02 0.0000000000000000e+00  -3.7287927916873562e-02 2.3490440255530144e-02 0.0000000000000000e+00  -4.0223539357673831e-02 1.3313817834865361e-02 0.0000000000000000e+00  -4.0011301977646511e-02 3.6119323092894192e-03 0.0000000000000000e+00  -3.8182638896410222e-02 -6.7542545264696321e-03 0.0000000000000000e+00  -3.4716467469499121e-02 -1.7530566780090042e-02 0.0000000000000000e+00  -3.0310991478834946e-02 -2.9374074789452184e-02 0.0000000000000000e+00  -2.1831650316697319e-02 -4.1890064416134062e-02 0.0000000000000000e+00  -1.0938750358109707e-02 -5.3345803439998569e-02 0.0000000000000000e+00  1.6006803822781424e-01 2.6216281299438178e-06 0.0000000000000000e+00  1.5965260827680214e-01 1.1966987525051020e-02 0.0000000000000000e+00  1.5831928935490347e-01 2.3872044569424659e-02 0.0000000000000000e+00  1.5608609372639948e-01 3.5608345082578104e-02 0.0000000000000000e+00  1.5298452207589244e-01 4.7190874135890175e-02 0.0000000000000000e+00  1.4903318339595281e-01 5.8485503156632104e-02 0.0000000000000000e+00  1.4420861676055832e-01 6.9445874802489746e-02 0.0000000000000000e+00  1.3864122845157942e-01 8.0064647551041090e-02 0.0000000000000000e+00  1.3229259632756948e-01 9.0194242596672511e-02 0.0000000000000000e+00  1.2517000307403225e-01 9.9822177074011031e-02 0.0000000000000000e+00  1.1737979511332895e-01 1.0888223071268018e-01 0.0000000000000000e+00  1.0887860634293650e-01 1.1733585875636771e-01 0.0000000000000000e+00  9.9842313391207443e-02 1.2515996592109274e-01 0.0000000000000000e+00  9.0177639013455907e-02 1.3225917219409497e-01 0.0000000000000000e+00  8.0051238017629062e-02 1.3865629415972822e-01 0.0000000000000000e+00  6.9473330722487917e-02 1.4424845777139811e-01 0.0000000000000000e+00  5.8502485798086812e-02 1.4904422941792414e-01 0.0000000000000000e+00  4.7199377096333088e-02 1.5299009408609135e-01 0.0000000000000000e+00  3.5611035650567412e-02 1.5609818501125616e-01 0.0000000000000000e+00  2.3884281144422405e-02 1.5831897164494155e-01 0.0000000000000000e+00  1.1956793927539632e-02 1.5966010685508514e-01 0.0000000000000000e+00  8.6438510771990992e-06 1.6010811802454272e-01 0.0000000000000000e+00  -1.1943918982865308e-02 1.5965989035099917e-01 0.0000000000000000e+00  -2.3860329411401985e-02 1.5829011448702615e-01 0.0000000000000000e+00  -3.5627131214261261e-02 1.5609981039965637e-01 0.0000000000000000e+00  -4.7182374867707787e-02 1.5296249300493567e-01 0.0000000000000000e+00  -5.8504761337464212e-02 1.4903533532189664e-01 0.0000000000000000e+00  -6.9458111264329936e-02 1.4425512787424771e-01 0.0000000000000000e+00  -8.0056554854170431e-02 1.3865895707237144e-01 0.0000000000000000e+00  -9.0175206735361862e-02 1.3226014536745553e-01 0.0000000000000000e+00  -9.9805687533487383e-02 1.2514951798995613e-01 0.0000000000000000e+00  -1.0888411255450227e-01 1.1733543698026233e-01 0.0000000000000000e+00  -1.1737784153327570e-01 1.0888715101512607e-01 0.0000000000000000e+00  -1.2516332368360278e-01 9.9835668744437805e-02 0.0000000000000000e+00  -1.3227696217979265e-01 9.0189074042528170e-02 0.0000000000000000e+00  -1.3864911563661161e-01 8.0060799698818033e-02 0.0000000000000000e+00  -1.4425822651486406e-01 6.9442231250938777e-02 0.0000000000000000e+00  -1.4902979335998429e-01 5.8491461271164495e-02 0.0000000000000000e+00  -1.5298846731916865e-01 4.7185989521653725e-02 0.0000000000000000e+00  -1.5608021240447464e-01 3.5639789730052017e-02 0.0000000000000000e+00  -1.5831208703048605e-01 2.3848561368164468e-02 0.0000000000000000e+00  -1.5965053232976731e-01 1.1964291099830368e-02 0.0000000000000000e+00  -1.6006888352698131e-01 -1.8249584721502897e-06 0.0000000000000000e+00  -1.5964864254431133e-01 -1.1979386016597262e-02 0.0000000000000000e+00  -1.5831214993935627e-01 -2.3854341450872150e-02 0.0000000000000000e+00  -1.5607913011391311e-01 -3.5645656273357904e-02 0.0000000000000000e+00  -1.5298190965083128e-01 -4.7199582824105094e-02 0.0000000000000000e+00  -1.4904022914275553e-01 -5.8469374511620910e-02 0.0000000000000000e+00  -1.4423505826830454e-01 -6.9478216744865248e-02 0.0000000000000000e+00  -1.3865471371448806e-01 -8.0039014967162508e-02 0.0000000000000000e+00  -1.3228188373904382e-01 -9.0184521446107321e-02 0.0000000000000000e+00  -1.2514189083427762e-01 -9.9798902922715704e-02 0.0000000000000000e+00  -1.1733625736934576e-01 -1.0887245747288452e-01 0.0000000000000000e+00  -1.0887728788894052e-01 -1.1734180400100008e-01 0.0000000000000000e+00  -9.9802754958633083e-02 -1.2514024806204896e-01 0.0000000000000000e+00  -9.0166508454437758e-02 -1.3225894510191652e-01 0.0000000000000000e+00  -8.0062331550362686e-02 -1.3864854537142551e-01 0.0000000000000000e+00  -6.9450053904547296e-02 -1.4421890660739867e-01 0.0000000000000000e+00  -5.8480202453612601e-02 -1.4904323550263332e-01 0.0000000000000000e+00  -4.7213601276766187e-02 -1.5298333152718710e-01 0.0000000000000000e+00  -3.5604711039025648e-02 -1.5609234774237973e-01 0.0000000000000000e+00  -2.3865132626635071e-02 -1.5832797885617542e-01 0.0000000000000000e+00  -1.1958546052697602e-02 -1.5964960904015316e-01 0.0000000000000000e+00  -1.0690508108630158e-05 -1.6010476965454681e-01 0.0000000000000000e+00  1.1971177626535963e-02 -1.5965889331939387e-01 0.0000000000000000e+00  2.3854746791779746e-02 -1.5828232376924101e-01 0.0000000000000000e+00  3.5621294426319658e-02 -1.5606037593666033e-01 0.0000000000000000e+00  4.7206751525254019e-02 -1.5298846328837457e-01 0.0000000000000000e+00  5.8488384801021635e-02 -1.4903702972386793e-01 0.0000000000000000e+00  6.9435576468058882e-02 -1.4426533950595313e-01 0.0000000000000000e+00  8.0031915810125004e-02 -1.3862360344992486e-01 0.0000000000000000e+00  9.0168412527875538e-02 -1.3225513458527935e-01 0.0000000000000000e+00  9.9807522213416933e-02 -1.2514544129052749e-01 0.0000000000000000e+00  1.0889863655917358e-01 -1.1736559380420991e-01 0.0000000000000000e+00  1.1736460745483192e-01 -1.0889097559364522e-01 0.0000000000000000e+00  1.2517692666825839e-01 -9.9826391004059434e-02 0.0000000000000000e+00  1.3227798230192397e-01 -9.0189612363794192e-02 0.0000000000000000e+00  1.3866099764982934e-01 -8.0031933167652697e-02 0.0000000000000000e+00  1.4424246344687908e-01 -6.9467736048376805e-02 0.0000000000000000e+00  1.4904170459062721e-01 -5.8492022046322659e-02 0.0000000000000000e+00  1.5298439064342170e-01 -4.7175202739554500e-02 0.0000000000000000e+00  1.5608904999773768e-01 -3.5605288371625438e-02 0.0000000000000000e+00  1.5830834712780897e-01 -2.3879778717004748e-02 0.0000000000000000e+00  1.5961167873419452e-01 -1.1963405237760372e-02 0.0000000000000000e+00  -2.2717170503226908e-03 -5.6647674732128429e-02 0.0000000000000000e+00  -4.3990952311670668e-03 7.8075159035972591e-02 0.0000000000000000e+00  -1.4182377390065247e-02 -7.7411588334671461e-02 0.0000000000000000e+00  2.1328283399983300e-02 -7.9334341211047918e-02 0.0000000000000000e+00  5.5917351639162449e-02 -5.2265333563485325e-02 0.0000000000000000e+00  -5.4383791671438003e-02 -5.4442348781778400e-02 0.0000000000000000e+00  8.0387541239567997e-02 -2.7555325403651115e-02 0.0000000000000000e+00  -8.2151723723901005e-02 -2.9351911291776840e-02 0.0000000000000000e+00  9.7323997993376599e-02 1.4785945370137539e-02 0.0000000000000000e+00  -9.9354974678224642e-02 1.6698501481419773e-02 0.0000000000000000e+00  8.3892897368916391e-02 6.4812333655168849e-02 0.0000000000000000e+00  -8.2155468868414946e-02 6.8292089569603365e-02 0.0000000000000000e+00  4.0049592349947524e-02 1.0248055519225503e-01 0.0000000000000000e+00  -3.5708117746230228e-02 1.0442758430873179e-01 0.0000000000000000e+00  -2.0205913346414653e-02 -1.0862425564358698e-01 0.0000000000000000e+00  2.7862295900071526e-02 -1.1213315085484143e-01 0.0000000000000000e+00  -8.2055949006320114e-02 -8.4001125580880617e-02 0.0000000000000000e+00  8.8898341822904250e-02 -8.5941765232193615e-02 0.0000000000000000e+00  1.1674131039897902e-01 -3.7595088959857914e-02 0.0000000000000000e+00  -1.1631719209315561e-01 -4.0214812588676728e-02 0.0000000000000000e+00  4.2053463655214722e-02 -1.4653373967768750e-02 0.0000000000000000e+00  -4.6540445202226242e-02 -4.1451560607205250e-02 0.0000000000000000e+00  2.6809820918984460e-02 -6.1137273041016293e-02 0.0000000000000000e+00  -3.2692625888947689e-02 -6.4544027767209508e-02 0.0000000000000000e+00  -5.4542167448172162e-02 -1.2034802625686808e-01 0.0000000000000000e+00  -3.5652446110445287e-03 -1.2880179070315279e-01 0.0000000000000000e+00  1.8834987375198675e-02 3.6746942440067480e-02 0.0000000000000000e+00  -1.5362675831337606e-02 2.8987879445550195e-02 0.0000000000000000e+00  6.4866198141274881e-02 -1.1729293487845975e-01 0.0000000000000000e+00  -3.8325532290804230e-02 7.6075093033127955e-02 0.0000000000000000e+00  4.9119442954608204e-03 6.6379845835699725e-02 0.0000000000000000e+00  4.4183537414840865e-02 1.0144366006132924e-01 0.0000000000000000e+00  -5.2530964944143121e-03 -5.5507755203893006e-02 0.0000000000000000e+00  -1.2790407625143813e-01 1.3309559254503583e-02 0.0000000000000000e+00  2.7936351091947926e-03 -5.4173874805800638e-02 0.0000000000000000e+00  1.2878645667688232e-01 1.6974658206560196e-02 0.0000000000000000e+00  1.1582019905291116e-01 -6.8410319393004168e-02 0.0000000000000000e+00  -1.1426157513560016e-01 -7.0372226995894419e-02 0.0000000000000000e+00  2.3745185218522094e-03 1.3156454057584929e-01 0.0000000000000000e+00  -1.3044442730413709e-03 8.1202614275300372e-02 0.0000000000000000e+00  1.1440397362340786e-01 6.9518953620757440e-02 0.0000000000000000e+00  -1.1368023980389801e-01 7.1569069292323609e-02 0.0000000000000000e+00  -5.0854756574928543e-02 -3.4691420026090970e-02 0.0000000000000000e+00  4.6793557684761976e-02 -3.6393995264241585e-02 0.0000000000000000e+00  1.3467343306124466e-01 -1.5253072314126405e-02 0.0000000000000000e+00  -6.8566627788507931e-02 1.2001861988236930e-01 0.0000000000000000e+00  -1.3502160363391727e-01 -1.7519933641225297e-02 0.0000000000000000e+00  -4.3735299634394292e-02 -5.7658843089022700e-02 0.0000000000000000e+00  7.0384427944211694e-02 1.2004752874887301e-01 0.0000000000000000e+00  3.1132537066059111e-02 -5.6014193079195918e-02 0.0000000000000000e+00  6.7356945574588850e-02 8.2483458013253401e-03 0.0000000000000000e+00  -6.7712602264975955e-02 1.3509480399823444e-02 0.0000000000000000e+00  -6.6283152606477921e-02 -1.0100601332110115e-01 0.0000000000000000e+00  4.6524671647745833e-02 -5.9947015884403820e-02 0.0000000000000000e+00  3.7146489189399737e-02 -6.4405472283972684e-02 0.0000000000000000e+00  5.2262915866277092e-02 5.4230762646344625e-02 0.0000000000000000e+00  -4.8641656657704015e-02 5.8035532275917026e-02 0.0000000000000000e+00  1.3184654896021505e-01 5.6353015158605586e-02 0.0000000000000000e+00  -2.6367008531706287e-02 5.0708408309422540e-02 0.0000000000000000e+00  -1.3469262299280790e-01 4.6985922638675799e-02 0.0000000000000000e+00  1.8534611873911016e-02 -1.3723917796457269e-01 0.0000000000000000e+00  -1.0232185571571603e-01 1.0303749859954353e-01 0.0000000000000000e+00  6.9127507758324682e-03 -6.0881584325985845e-02 0.0000000000000000e+00  1.0411358536006746e-01 1.0081738983314670e-01 0.0000000000000000e+00  3.4584105040585941e-02 1.4221326066948514e-01 0.0000000000000000e+00  -3.2553546717047008e-02 1.4303741264855743e-01 0.0000000000000000e+00  2.0295448546457195e-04 -7.1690384630853837e-02 0.0000000000000000e+00  -2.1694560790378518e-02 -5.2340317698053085e-02 0.0000000000000000e+00  2.7345293145550453e-02 6.6244490827763819e-02 0.0000000000000000e+00  1.9430404832975999e-02 -5.2018084823142560e-02 0.0000000000000000e+00  1.4293354102881314e-01 7.5613007065327212e-03 0.0000000000000000e+00  -1.3306466130229341e-01 -5.4351282717110448e-02 0.0000000000000000e+00  -3.0367393609405952e-02 -7.2470115945890048e-02 0.0000000000000000e+00  -2.2928953310936851e-02 1.6420065207119177e-02 0.0000000000000000e+00  -1.2999881979759156e-01 -3.5862060540287088e-03 0.0000000000000000e+00  -2.2253536495276002e-02 -1.4336713043867774e-01 0.0000000000000000e+00  -6.2243353027625813e-02 -1.4475597532920086e-02 0.0000000000000000e+00  5.5056330920482399e-02 -1.3738114085936901e-01 0.0000000000000000e+00  -4.6068155985522434e-02 1.2080385452809611e-01 0.0000000000000000e+00  -1.0338484777103833e-01 -1.0633060043261192e-01 0.0000000000000000e+00  1.3392944810747606e-01 -5.2377665913732802e-02 0.0000000000000000e+00  9.3519595646672560e-02 -1.1270538145569071e-01 0.0000000000000000e+00  6.1590574307454689e-02 -4.4151548095416243e-02 0.0000000000000000e+00  -6.1470801698936622e-02 -4.6974146728470549e-02 0.0000000000000000e+00  -4.4814291204172553e-02 -1.3917640388906768e-01 0.0000000000000000e+00  -1.8946467849432776e-02 -5.8194947018239622e-02 0.0000000000000000e+00  9.1389499389117862e-02 -3.2358581013676925e-02 0.0000000000000000e+00  -9.1783711239905835e-02 -3.5063551051781265e-02 0.0000000000000000e+00  -4.5930159719903456e-03 -8.7475072215393856e-02 0.0000000000000000e+00  4.7404391218623512e-02 -2.6789994393677921e-02 0.0000000000000000e+00  -2.4280288871497309e-02 6.4740725632751447e-02 0.0000000000000000e+00  -7.8625624557759032e-03 -8.9921678227471696e-03 0.0000000000000000e+00  1.2028071051419006e-01 -8.7630236315846932e-02 0.0000000000000000e+00  3.0449868094574395e-02 2.7928318193749780e-03 0.0000000000000000e+00  3.3362159896375035e-03 -7.9019451844753133e-02 0.0000000000000000e+00  -1.1775707634872579e-01 -8.9715872199269436e-02 0.0000000000000000e+00  -7.3418307569448921e-02 -6.6704020732240188e-02 0.0000000000000000e+00  6.3894146212734856e-02 -9.3159310365049722e-02 0.0000000000000000e+00  8.5752016192972742e-03 -3.8388950275902077e-02 0.0000000000000000e+00  5.5038608358351851e-02 2.1039356627118581e-02 0.0000000000000000e+00  9.2161358520554126e-02 -5.5778283977764732e-03 0.0000000000000000e+00  2.5912361501843093e-02 4.0605595279636947e-02 0.0000000000000000e+00  -8.1043419117000179e-02 -1.2492961381056714e-01 0.0000000000000000e+00  -1.5691500362071495e-02 9.3211695895029964e-02 0.0000000000000000e+00  1.4718979475143976e-01 -2.4581498165809436e-02 0.0000000000000000e+00  -1.4733183625019539e-01 -2.6726257884398093e-02 0.0000000000000000e+00  -5.4131527923055880e-02 2.6932148066579613e-02 0.0000000000000000e+00  -2.4245959661196533e-02 -9.2915598257853102e-02 0.0000000000000000e+00  -7.4467574910077133e-02 -5.9503482296212801e-02 0.0000000000000000e+00  -2.5408413375659224e-02 -6.7116859194012363e-02 0.0000000000000000e+00  8.0366146625908158e-02 -6.7859041200687142e-02 0.0000000000000000e+00  4.6754599063899517e-03 -1.0406847789596270e-01 0.0000000000000000e+00  -5.7069134696608910e-03 -8.7021140279974051e-03 0.0000000000000000e+00  -9.4402208490311793e-02 -4.8910106134089628e-03 0.0000000000000000e+00  3.3756121515232856e-02 -9.9394088354872331e-02 0.0000000000000000e+00  8.5372297975395459e-02 -3.4752434677262217e-02 0.0000000000000000e+00  8.7178817633476305e-02 -6.3338865990909252e-02 0.0000000000000000e+00  8.2463869427126232e-02 -6.5150305252771365e-02 0.0000000000000000e+00  -1.4931754377945589e-01 2.2284914005921665e-02 0.0000000000000000e+00  -1.3085920345412819e-01 7.3443812161988226e-02 0.0000000000000000e+00  -9.4634881288339925e-02 3.5112884000310214e-02 0.0000000000000000e+00  8.8868689685074234e-02 1.2108845747106971e-01 0.0000000000000000e+00  9.2099880572898876e-02 4.3738124690648798e-02 0.0000000000000000e+00  1.4247484267314692e-01 4.7000598734944249e-02 0.0000000000000000e+00  3.8315328443235430e-02 -1.4484908810804331e-01 0.0000000000000000e+00  6.9829363521198770e-02 8.3621696092504180e-02 0.0000000000000000e+00  -8.6553012187674631e-03 5.8602938847826934e-02 0.0000000000000000e+00  -5.6701337041077209e-02 9.2110404342799448e-02 0.0000000000000000e+00  -3.7074283006487900e-02 -7.5849191961753867e-02 0.0000000000000000e+00  1.0061361193055131e-01 -5.4303070273280248e-02 0.0000000000000000e+00  -2.9447194850596416e-02 1.0109434875821204e-02 0.0000000000000000e+00  -9.6014060468830417e-02 -5.1236977355412855e-02 0.0000000000000000e+00  1.1222833164753301e-01 -6.2441159945344693e-03 0.0000000000000000e+00  -5.8783150658339167e-03 1.5338538482188183e-01 0.0000000000000000e+00  -8.6962885045650237e-02 1.2296341540730402e-01 0.0000000000000000e+00  1.1111276908453337e-01 -1.0300735206989710e-01 0.0000000000000000e+00  8.6079069049638125e-03 -6.8268072093230464e-02 0.0000000000000000e+00  7.0512261101703796e-03 -1.5051907525771227e-01 0.000000