<?xml version="1.0"?>
<VTKFile type="UnstructuredGrid"  version="0.1"  >
<UnstructuredGrid>
<Piece  NumberOfPoints="1173" NumberOfCells="2198">
<Points>
<DataArray  type="Float64"  NumberOfComponents="3"  format="ascii">-1.010293109948927 0.1702402149192498 0  -1.007652937815192 0.06178413554074734 0  -0.9929108423551383 -0.04576449786775762 0  -0.9662425743451682 -0.1510316692032484 0  -0.9279100669347878 -0.2527234930984154 0  -0.8784036902144708 -0.349537951238546 0  -0.8184336123548211 -0.4401248018178495 0  -0.7488138058217964 -0.5234007655232702 0  -0.6708789541291459 -0.5983787320050336 0  -0.5857325021535169 -0.6637714133229565 0  -0.4945459348199074 -0.7193679116600841 0  -0.3982447676599959 -0.7651857123019273 0  -0.2979079649342126 -0.8009301763202393 0  -0.1945161333106916 -0.8261455573647676 0  -0.08924288869142373 -0.8408442930184292 0  0.01688095950626538 -0.8451049472940834 0  0.122809606043627 -0.8371697683731026 0  0.2274299081533455 -0.8188012513994443 0  0.329873569172923 -0.7897476207783208 0  0.4289187809696622 -0.7504851726482633 0  0.5234567239296147 -0.7011703081403424 0  0.6126234319649864 -0.642242113430067 0  0.6953649093194539 -0.5736242257592191 0  0.7706367055117886 -0.4959879786987557 0  0.8370611994383007 -0.4102579440457285 0  0.8936738708575479 -0.3175136998562711 0  0.939595310274482 -0.2189037660424715 0  0.9742479875992825 -0.1160250400429342 0  0.9973150410025199 -0.009924178684484239 0  1.008117145145134 0.0980744398876509 0  1.006693244202095 0.2065372626270119 0  0.9932659834939892 0.3141436627293711 0  0.967798931286222 0.4195149886145008 0  0.930559562563078 0.5214184624214721 0  0.8823921121670721 0.6185277483446795 0  0.8236878910516027 0.7096722049457221 0  0.7554392610860595 0.7939994887365494 0  0.6782982608982431 0.8702650390575017 0  0.5934634867126041 0.9378481540804124 0  0.5018131112758701 0.9960038835556154 0  0.4044720784019609 1.044065084476109 0  0.3025903833452117 1.081499827233626 0  0.1972719826564537 1.108251462434416 0  0.089766733154823 1.123759477353053 0  -0.01881922526476226 1.127341412958558 0  -0.1271256768675765 1.119469330508355 0  -0.2340116711637002 1.100168316577214 0  -0.3382881157850985 1.069867329969959 0  -0.4386702796256263 1.028786305986753 0  -0.5341649092292122 0.9772603280009776 0  -0.6236640606655074 0.9159032933834015 0  -0.7060565882551845 0.8453855592838457 0  -0.7802429173382486 0.7663182428927736 0  -0.8454512054863484 0.67971687363547 0  -0.9007918739705942 0.5864488130988857 0  -0.9455380114621527 0.4876523292415995 0  -0.9789678168728484 0.3845629700571255 0  -1.000731502763632 0.2782836408511012 0  -2.337344437252761 0.1006509682027366 0  -2.337344437252761 -0.100650968202736 0  -2.320039556804207 -0.3012077200543108 0  -2.285557915187494 -0.4995344353299123 0  -2.234154802413087 -0.694162772418052 0  -2.166210789143603 -0.8836517712053923 0  -2.082228909081767 -1.066598521441283 0  -1.982830934684887 -1.241648549394407 0  -1.868752773779103 -1.407505845902419 0  -1.740839021155325 -1.562942461570338 0  -1.600036705484896 -1.706807598078242 0  -1.447388277850643 -1.83803612828941 0  -1.284023893803786 -1.955656482078982 0  -1.111153046087641 -2.058797839499239 0  -0.9300556099765029 -2.146696578025831 0  -0.7420723675269277 -2.218701926151766 0  -0.5485950808964601 -2.274280781471976 0  -0.3510561882235659 -2.313021657587001 0  -0.1509181983568175 -2.334637730604324 0  0.05033713704893303 -2.338968962682125 0  0.2512197939033879 -2.325983286893463 0  0.4502425072978524 -2.29577684463859 0  0.6459317826942804 -2.248573273847656 0  0.8368388051632841 -2.184722053243722 0  1.021550165902993 -2.104695914924563 0  1.198698326623316 -2.00908734441961 0  1.36697174432096 -1.898604194134388 0  1.525124581484984 -1.774064442658955 0  1.671985929841835 -1.63639013874061 0  1.806468479350541 -1.486600574757564 0  1.927576568265847 -1.325804740234789 0  2.034413554669414 -1.155193111273581 0  2.126188454892883 -0.9760288366830111 0  2.202221799684212 -0.7896383860680835 0  2.261950664760293 -0.5974017291128703 0  2.304932838501393 -0.4007421187677799 0  2.330850095931273 -0.2011155539826635 0  2.339510554743572 0 0  2.330850095931273 0.2011155539826629 0  2.304932838501393 0.4007421187677793 0  2.261950664760293 0.5974017291128698 0  2.202221799684212 0.789638386068083 0  2.126188454892883 0.9760288366830107 0  2.034413554669414 1.155193111273581 0  1.927576568265847 1.325804740234789 0  1.806468479350542 1.486600574757563 0  1.671985929841835 1.63639013874061 0  1.525124581484985 1.774064442658955 0  1.366971744320961 1.898604194134387 0  1.198698326623316 2.00908734441961 0  1.021550165902995 2.104695914924562 0  0.8368388051632841 2.184722053243722 0  0.645931782694281 2.248573273847656 0  0.4502425072978545 2.295776844638589 0  0.251219793903388 2.325983286893463 0  0.05033713704893308 2.338968962682125 0  -0.1509181983568175 2.334637730604324 0  -0.3510561882235659 2.313021657587001 0  -0.5485950808964607 2.274280781471976 0  -0.7420723675269271 2.218701926151766 0  -0.9300556099765029 2.146696578025831 0  -1.111153046087639 2.05879783949924 0  -1.284023893803787 1.955656482078981 0  -1.447388277850644 1.83803612828941 0  -1.600036705484896 1.706807598078242 0  -1.740839021155325 1.562942461570338 0  -1.868752773779102 1.407505845902421 0  -1.982830934684886 1.241648549394408 0  -2.082228909081767 1.066598521441282 0  -2.166210789143602 0.8836517712053937 0  -2.234154802413087 0.6941627724180526 0  -2.285557915187494 0.4995344353299128 0  -2.320039556804207 0.3012077200543113 0  -0.000204158105418073 0.1413225794093893 0  0.1028139990974094 -1.590487059483821 0  -0.6999727933227857 -1.442151279337854 0  0.8103865102540012 -1.381879230548784 0  -1.343412579616097 -0.9240114221498568 0  1.383652385733127 -0.8664429970095652 0  -1.636658960635165 -0.284554139118276 0  1.649066280106945 -0.2140961316770245 0  -1.635722730550718 0.4320092399909962 0  1.617183011423118 0.5024666336926833 0  1.276985874643324 1.146321505538275 0  -1.32426571494348 1.089780527847616 0  -0.7773432572373586 1.542204512543075 0  0.7237583704916711 1.568127719505135 0  0.1120087367831132 1.732725581794433 0  -0.5019363585245743 0.07631991414428582 0  0.5050722105910344 0.1457112191825815 0  -0.2993279363843992 0.5387596431877064 0  0.2480030922927654 -0.2883915109430036 0  0.2487307863567044 0.5698812624620204 0  -0.3525264622885862 -1.808278340491651 0  -1.199073191353263 -1.403357155763878 0  -0.371140122917341 1.817056298066469 0  1.291132065458928 -1.340052299442899 0  0.5989230805045225 -1.79070377833994 0  -0.2450925110316656 -0.3191727303119468 0  -0.8879450011055815 -1.016989935667632 0  -1.749879649961472 -0.8032839211203479 0  1.775841840335771 -0.645842636699496 0  -0.2027348168748691 -1.26934435146781 0  0.9412734558575274 -0.9509411173478665 0  0.398091690361867 -1.225422005684663 0  -1.936450886166195 2.775557561562891e-16 0  1.891202307903761 0.1556683475918635 0  -1.769473937118149 0.8122786973148824 0  1.658215703965878 0.9359506541732845 0  1.296711134445125 -0.4509034818992539 0  -1.272346677878879 -0.4899170835939575 0  -1.198641867782554 1.494708916476428 0  1.142707244109304 1.543906793666344 0  -0.0005259959892378874 -1.959322338449158 0  -0.4127158964908917 1.44091162273109 0  0.4599581953070769 1.906823667026005 0  -0.7328361401333996 -1.821260755066194 0  1.076013912550649 -1.651234456699824 0  1.422505853669416 0.1348138241590132 0  -0.5349948395876805 -1.115077494774691 0  -1.40451549223582 0.1063833908534992 0  1.280059530916255 0.7361421989567829 0  -1.406736017959593 0.7262068665900454 0  -1.534918745646181 -1.243081704405721 0  1.605384617815768 -1.155600382498611 0  -0.9516550905830203 1.19613364244932 0  0.8859485482624156 1.207150321691354 0  -1.92774776157271 -0.4927405295344949 0  1.963065988018644 -0.3563811392877639 0  0.3648206426362911 1.453211353215488 0  -0.7194880497028607 1.878356261125403 0  -1.660876659452646 1.133935719997034 0  -0.08975535044633065 2.00297297802757 0  -1.973068760240995 0.3461655802661385 0  -1.023733163695358 -0.7123109482519078 0  -0.03784553068719336 0.7752751672956071 0  1.885297358271056 0.6957715340238432 0  0.575648811543827 -0.1892507850414531 0  -0.612909364328915 0.4005446596614118 0  0.5739933500950785 0.4843719170032608 0  -1.113839496763797 0.8509087330775631 0  1.514130840594545 1.359401618633211 0  0.7721705368806289 1.877915531817973 0  -0.9640954980736502 -1.610234762099921 0  0.3304434762144238 -1.986090669265911 0  -1.303646409821779 0.4166604710625244 0  0.04552538934809457 1.430264595306449 0  1.289970246981845 0.4209539466050477 0  -1.014659872435657 1.755002869292415 0  1.03955524922155 0.935290952123538 0  1.048898713297319 -0.6510982498883309 0  -1.276887551648756 -0.1781258445758102 0  0.6790045702412746 -1.10662925341408 0  -0.5909105321992693 -0.224356502390447 0  0.01482260325084504 -0.5179179871221313 0  0.09072732042602448 -1.152296842362676 0  0.4121522914638993 -1.538742836787965 0  1.282848352413066 -0.1415590252821539 0  -0.6539569677121015 1.25637055934839 0  -1.460796471277396 1.354088235873206 0  0.598972292462507 1.274242731150929 0  1.819698302113855 -0.9438860974845605 0  -1.55930746473286 -0.5731582457157312 0  -0.1543769312263781 1.632742005896317 0  -0.1900098732840637 -1.563164715823615 0  0.1937196859399816 2.004171438919967 0  -0.01873090625254031 0.4386623271668767 0  -1.658394524932696 -0.007253721269092726 0  1.876351172470076 0.4255898527183789 0  -1.229171028151966 -1.674429271436673 0  0.8314625431290616 -1.919130186351874 0  -0.4485457579932659 -1.363827744128779 0  1.194284803392029 -1.075291388777986 0  -0.008156258479042194 -0.1498112025078842 0  -0.2372466419892513 0.002121722863783926 0  -0.2375116452508441 0.2740009826971449 0  2.066854232312459 -0.08900309098674609 0  1.567083020571028 -0.4726553000632672 0  -0.7563212001992061 0.1221625386604957 0  0.7334170590461606 0.2755840062732937 0  0.2194238335498619 0.8316107537096188 0
[...]
<PointData  Vectors="f_3053-0"> 
<DataArray  type="Float64"  Name="f_3053-0"  NumberOfComponents="3" format="ascii">-1.5301762224669202e-02 -7.0085722836400868e-02 0.0000000000000000e+00  -1.1001503545493554e-03 -8.3121693098445124e-02 0.0000000000000000e+00  1.7703741350219678e-02 -9.3590814604629605e-02 0.0000000000000000e+00  3.8681214678878272e-02 -1.0135984354677165e-01 0.0000000000000000e+00  6.2338335781287793e-02 -1.0734987477981817e-01 0.0000000000000000e+00  8.8422805815101063e-02 -1.1053206613037331e-01 0.0000000000000000e+00  1.1627268574590435e-01 -1.0858234509742493e-01 0.0000000000000000e+00  1.3997414751236908e-01 -1.0169458806916032e-01 0.0000000000000000e+00  1.5240502729464253e-01 -8.1599669763915264e-02 0.0000000000000000e+00  1.5042975375726628e-01 -5.7972174848561875e-02 0.0000000000000000e+00  1.3762910511059262e-01 -3.3041146504251939e-02 0.0000000000000000e+00  1.1832917119511657e-01 -1.1839732106015875e-02 0.0000000000000000e+00  9.6032314549764797e-02 9.7364859638992725e-03 0.0000000000000000e+00  6.6630204932211765e-02 2.3763554970958820e-02 0.0000000000000000e+00  3.2465542245693861e-02 3.7597216667254407e-02 0.0000000000000000e+00  -5.5395264000963861e-03 5.1590257970272203e-02 0.0000000000000000e+00  -3.9265561818049882e-02 3.8224967531437795e-02 0.0000000000000000e+00  -7.1240765838493286e-02 2.3000831822811502e-02 0.0000000000000000e+00  -9.9589905967414349e-02 3.5089722906532796e-03 0.0000000000000000e+00  -1.2466563931103446e-01 -1.6799168177768983e-02 0.0000000000000000e+00  -1.3936489411350850e-01 -3.8619034067245615e-02 0.0000000000000000e+00  -1.5153933471610104e-01 -6.4073468957946259e-02 0.0000000000000000e+00  -1.5030215043004996e-01 -9.1207084669361088e-02 0.0000000000000000e+00  -1.3573971876964219e-01 -1.0722142829960069e-01 0.0000000000000000e+00  -1.0788120264410679e-01 -1.1038349474310366e-01 0.0000000000000000e+00  -8.1790297575953685e-02 -1.0879779569995099e-01 0.0000000000000000e+00  -5.6822435219101297e-02 -1.0826670105302368e-01 0.0000000000000000e+00  -3.6871056515311418e-02 -1.0551981177500844e-01 0.0000000000000000e+00  -1.5931686061345717e-02 -9.5107254605081307e-02 0.0000000000000000e+00  3.5281920376673804e-03 -8.0479357358014689e-02 0.0000000000000000e+00  1.9204557711292886e-02 -6.7166465226222077e-02 0.0000000000000000e+00  3.0518286486838641e-02 -5.8079247645140664e-02 0.0000000000000000e+00  4.0670216757204725e-02 -4.4058043919151149e-02 0.0000000000000000e+00  4.8819238907085317e-02 -2.7380601320404135e-02 0.0000000000000000e+00  5.5136724099146085e-02 -1.4680020472539520e-02 0.0000000000000000e+00  5.6433909037881633e-02 -1.7887243346196994e-03 0.0000000000000000e+00  5.5701065345609257e-02 1.0639930761071599e-02 0.0000000000000000e+00  5.2324187217242892e-02 2.6522703886749030e-02 0.0000000000000000e+00  4.9984630733725235e-02 3.6874928259134986e-02 0.0000000000000000e+00  4.7068608876683508e-02 4.5808481795646387e-02 0.0000000000000000e+00  3.6346763173153322e-02 5.4240773717061083e-02 0.0000000000000000e+00  2.9442200584928205e-02 5.9611734177447750e-02 0.0000000000000000e+00  2.2372907888062031e-02 6.2701485692483724e-02 0.0000000000000000e+00  1.0630996185131180e-02 6.3575712272614618e-02 0.0000000000000000e+00  -2.6809540785309007e-03 6.8421695908537139e-02 0.0000000000000000e+00  -1.2036627989906885e-02 6.7521085473768783e-02 0.0000000000000000e+00  -2.3071046738142118e-02 6.6284501018515282e-02 0.0000000000000000e+00  -3.2067671885648352e-02 6.0837011858645589e-02 0.0000000000000000e+00  -3.8889417141962764e-02 5.4089133861784135e-02 0.0000000000000000e+00  -4.6415977196406111e-02 4.5156513195164234e-02 0.0000000000000000e+00  -5.4697347060898037e-02 3.2333194490379476e-02 0.0000000000000000e+00  -5.5040116336902291e-02 2.1119473300846247e-02 0.0000000000000000e+00  -5.7800831814579332e-02 9.1007170747450326e-03 0.0000000000000000e+00  -5.7064873240706637e-02 -4.3424063835777234e-03 0.0000000000000000e+00  -5.3328901013835223e-02 -1.8602967777905873e-02 0.0000000000000000e+00  -4.6283726830453710e-02 -3.2459335814406562e-02 0.0000000000000000e+00  -3.8073102320392418e-02 -4.7246543342127155e-02 0.0000000000000000e+00  -2.7009976598996396e-02 -5.9691777114406840e-02 0.0000000000000000e+00  -1.3427318820471396e-01 5.7821853219424081e-03 0.0000000000000000e+00  -1.3431221086717093e-01 -5.8011357710086812e-03 0.0000000000000000e+00  -1.3331869928465775e-01 -1.7312759424015164e-02 0.0000000000000000e+00  -1.3130638681049625e-01 -2.8696367876274293e-02 0.0000000000000000e+00  -1.2838690453914225e-01 -3.9872858780323026e-02 0.0000000000000000e+00  -1.2444227968093204e-01 -5.0759274397572524e-02 0.0000000000000000e+00  -1.1964832633537063e-01 -6.1303839120941131e-02 0.0000000000000000e+00  -1.1394635651616231e-01 -7.1344886755012188e-02 0.0000000000000000e+00  -1.0738352605782642e-01 -8.0884627961934866e-02 0.0000000000000000e+00  -1.0005549315954047e-01 -8.9817464155880877e-02 0.0000000000000000e+00  -9.1945261013446231e-02 -9.8083895531575718e-02 0.0000000000000000e+00  -8.3185155472766628e-02 -1.0562621393388076e-01 0.0000000000000000e+00  -7.3794259501722650e-02 -1.1239478289573332e-01 0.0000000000000000e+00  -6.3868133511173528e-02 -1.1831263876890062e-01 0.0000000000000000e+00  -5.3462987091372580e-02 -1.2336441438660480e-01 0.0000000000000000e+00  -4.2637109482192077e-02 -1.2751256354058041e-01 0.0000000000000000e+00  -3.1522468676436557e-02 -1.3070822106639562e-01 0.0000000000000000e+00  -2.0175315704382323e-02 -1.3290072699691866e-01 0.0000000000000000e+00  -8.6871714267192091e-03 -1.3417307741473380e-01 0.0000000000000000e+00  2.8883866200302031e-03 -1.3438835667279211e-01 0.0000000000000000e+00  1.4437845300969167e-02 -1.3364654812933977e-01 0.0000000000000000e+00  2.5874779609537921e-02 -1.3194563226202910e-01 0.0000000000000000e+00  3.7109721394459269e-02 -1.2920060639893133e-01 0.0000000000000000e+00  4.8096466072729979e-02 -1.2555654816218634e-01 0.0000000000000000e+00  5.8706358032757311e-02 -1.2095705042921993e-01 0.0000000000000000e+00  6.8893747522497925e-02 -1.1545860630211939e-01 0.0000000000000000e+00  7.8553448566523076e-02 -1.0911234353440122e-01 0.0000000000000000e+00  8.7652385276615091e-02 -1.0194533985222777e-01 0.0000000000000000e+00  9.6075810352798163e-02 -9.4046663309090339e-02 0.0000000000000000e+00  1.0378804058684057e-01 -8.5400168194799897e-02 0.0000000000000000e+00  1.1075229709463809e-01 -7.6161396764840877e-02 0.0000000000000000e+00  1.1688068396156760e-01 -6.6362358439873176e-02 0.0000000000000000e+00  1.2218651540968789e-01 -5.6087417269431811e-02 0.0000000000000000e+00  1.2654449875345361e-01 -4.5384418745564259e-02 0.0000000000000000e+00  1.2994805387950023e-01 -3.4318456798382975e-02 0.0000000000000000e+00  1.3245195898935158e-01 -2.3026210204459420e-02 0.0000000000000000e+00  1.3393704361902004e-01 -1.1578922642871258e-02 0.0000000000000000e+00  1.3443662232241807e-01 1.2187960330039002e-06 0.0000000000000000e+00  1.3390801941711966e-01 1.1548220681025846e-02 0.0000000000000000e+00  1.3244874127767928e-01 2.3025546309996932e-02 0.0000000000000000e+00  1.2998244029693343e-01 3.4319873076990359e-02 0.0000000000000000e+00  1.2655585872825337e-01 4.5368137894813858e-02 0.0000000000000000e+00  1.2219126727893111e-01 5.6066538224835587e-02 0.0000000000000000e+00  1.1692341227357347e-01 6.6377023499201493e-02 0.0000000000000000e+00  1.1074814744789267e-01 7.6170929983972249e-02 0.0000000000000000e+00  1.0381986260582621e-01 8.5422607718571075e-02 0.0000000000000000e+00  9.6096245000957745e-02 9.4050409665790230e-02 0.0000000000000000e+00  8.7643749841733509e-02 1.0195762152445954e-01 0.0000000000000000e+00  7.8575953233378959e-02 1.0910256067575184e-01 0.0000000000000000e+00  6.8876523297588699e-02 1.1542995596863317e-01 0.0000000000000000e+00  5.8694386971819681e-02 1.2097187204289896e-01 0.0000000000000000e+00  4.8108556586136712e-02 1.2555509066201523e-01 0.0000000000000000e+00  3.7115151294130538e-02 1.2920427114413449e-01 0.0000000000000000e+00  2.5891298080996817e-02 1.3194667824103481e-01 0.0000000000000000e+00  1.4441822900461599e-02 1.3367880314851210e-01 0.0000000000000000e+00  2.8799367067631073e-03 1.3443911126138311e-01 0.0000000000000000e+00  -8.6941006986772373e-03 1.3417261051253024e-01 0.0000000000000000e+00  -2.0171134035811316e-02 1.3290589616056267e-01 0.0000000000000000e+00  -3.1518664077330553e-02 1.3071199712333004e-01 0.0000000000000000e+00  -4.2639233619538981e-02 1.2748000569472140e-01 0.0000000000000000e+00  -5.3440073717205841e-02 1.2334463766450379e-01 0.0000000000000000e+00  -6.3849774652346356e-02 1.1829406614250683e-01 0.0000000000000000e+00  -7.3790763171906637e-02 1.1239907018184189e-01 0.0000000000000000e+00  -8.3180768574236716e-02 1.0563365024743088e-01 0.0000000000000000e+00  -9.1932246589248964e-02 9.8059093187640306e-02 0.0000000000000000e+00  -1.0001609170332672e-01 8.9793971839065331e-02 0.0000000000000000e+00  -1.0736585230913794e-01 8.0866498442578275e-02 0.0000000000000000e+00  -1.1394176565059307e-01 7.1359159299019287e-02 0.0000000000000000e+00  -1.1965987392638862e-01 6.1297806449497998e-02 0.0000000000000000e+00  -1.2445792050668329e-01 5.0755863028185674e-02 0.0000000000000000e+00  -1.2835104760985422e-01 3.9872386523482614e-02 0.0000000000000000e+00  -1.3131307358300479e-01 2.8685646919757918e-02 0.0000000000000000e+00  -1.3328551425281965e-01 1.7304450902855335e-02 0.0000000000000000e+00  -2.1450397615749581e-03 1.3352296364426380e-01 0.0000000000000000e+00  3.6369462267870955e-03 -7.6988365225676800e-02 0.0000000000000000e+00  -2.7948616797583967e-02 -7.3887736507166818e-02 0.0000000000000000e+00  3.2320166882033229e-02 -7.1203922356854160e-02 0.0000000000000000e+00  -4.2183837197917601e-02 -5.0247232371106190e-02 0.0000000000000000e+00  4.3499132437210188e-02 -4.9160306077100764e-02 0.0000000000000000e+00  -5.6356021428589240e-02 -5.2463969404592851e-02 0.0000000000000000e+00  5.9147548379534717e-02 -5.0564603201223093e-02 0.0000000000000000e+00  -8.9806745600743434e-02 -3.3403187963669881e-02 0.0000000000000000e+00  9.1348828808458946e-02 -2.9634050349553916e-02 0.0000000000000000e+00  1.0070463901740760e-01 2.3548363224441277e-02 0.0000000000000000e+00  -1.0166093572371265e-01 1.8666940741195733e-02 0.0000000000000000e+00  -7.1886921492466463e-02 7.3838716101481419e-02 0.0000000000000000e+00  6.8448539644688056e-02 7.7088657188499679e-02 0.0000000000000000e+00  1.2060069756669295e-02 1.0035384767607815e-01 0.0000000000000000e+00  -3.1752750083361682e-02 5.6581454349266425e-02 0.0000000000000000e+00  3.3393812557533827e-02 5.7985612186964845e-02 0.0000000000000000e+00  -3.1022758600561057e-02 8.7913887705178217e-02 0.0000000000000000e+00  -2.0246486708634683e-02 1.2022630366370554e-01 0.0000000000000000e+00  2.4855797909598951e-02 9.0815223209001164e-02 0.0000000000000000e+00  -2.2145096900275409e-02 -1.0488965559514257e-01 0.0000000000000000e+00  -7.1189278517139062e-02 -7.5211438176343598e-02 0.0000000000000000e+00  -3.3957959693099692e-02 1.0744117019454918e-01 0.0000000000000000e+00  7.6345854084306580e-02 -7.1613519461613928e-02 0.0000000000000000e+00  3.8607181234859476e-02 -1.0503378303050104e-01 0.0000000000000000e+00  2.1795443421176883e-02 1.1717862436154250e-01 0.0000000000000000e+00  1.2133314744156437e-02 -5.6424595007829613e-02 0.0000000000000000e+00  -9.3587083219286923e-02 -5.1681643790163392e-02 0.0000000000000000e+00  9.0977630786552022e-02 -4.7169881575550486e-02 0.0000000000000000e+00  1.1933407188751178e-02 -4.1586183527107655e-02 0.0000000000000000e+00  -1.4746503949078562e-02 -5.5622853285255978e-02 0.0000000000000000e+00  -1.7232619210319804e-02 -4.7942202995474033e-02 0.0000000000000000e+00  -1.0912220862334518e-01 -3.1043563154454296e-02 0.0000000000000000e+00  1.0696256527926691e-01 -2.7058013253595036e-02 0.0000000000000000e+00  -1.2010333218522448e-01 1.1466844929509506e-02 0.0000000000000000e+00  1.1658399676108809e-01 1.6549763521618337e-02 0.0000000000000000e+00  -1.2971999753460511e-02 -6.3695884711230555e-02 0.0000000000000000e+00  1.8734397475301080e-02 -6.3734756304737156e-02 0.0000000000000000e+00  -9.8091346978700700e-02 6.8143301695236858e-02 0.0000000000000000e+00  9.5222639981542040e-02 7.2993875000364805e-02 0.0000000000000000e+00  -2.0183687103854354e-04 -1.1840571954088253e-01 0.0000000000000000e+00  -4.1614553231166092e-02 7.1652424262519207e-02 0.0000000000000000e+00  4.0873660722156833e-02 1.1403518598757281e-01 0.0000000000000000e+00  -4.9592896148102313e-02 -1.0816654459827384e-01 0.0000000000000000e+00  7.1256336707938767e-02 -9.5328189575620906e-02 0.0000000000000000e+00  3.6165490513007388e-02 -6.4435008808397851e-02 0.0000000000000000e+00  3.2501911906513616e-02 -5.2680444022901299e-02 0.0000000000000000e+00  -3.2687886605892558e-02 -6.6655506473863077e-02 0.0000000000000000e+00  7.8928089973182486e-02 -2.5642409327756421e-02 0.0000000000000000e+00  -8.8422311997126288e-02 -2.1713117287548742e-02 0.0000000000000000e+00  -9.2951544609953987e-02 -6.8466494831537869e-02 0.0000000000000000e+00  9.5950004477996204e-02 -6.3976551511841839e-02 0.0000000000000000e+00  -8.1549880729166094e-02 2.9586264830293342e-02 0.0000000000000000e+00  7.8468038393718145e-02 3.2093640289123627e-02 0.0000000000000000e+00  -1.0715410375651031e-01 -4.3116062913253907e-02 0.0000000000000000e+00  1.1035277421151486e-01 -3.7465272951479306e-02 0.0000000000000000e+00  3.7153217324631789e-02 7.2520100813303942e-02 0.0000000000000000e+00  -5.9897770858789556e-02 1.0993055641540019e-01 0.0000000000000000e+00  -1.1922081185995018e-01 4.0460422108398487e-02 0.0000000000000000e+00  -6.9435408364773759e-03 1.2374701272444651e-01 0.0000000000000000e+00  -1.2170325803133018e-01 -1.0764085960450373e-02 0.0000000000000000e+00  5.2954923280332460e-02 -6.0927149226776743e-02 0.0000000000000000e+00  -5.1714878871020227e-03 8.8135329439931617e-02 0.0000000000000000e+00  1.2376884517990214e-01 9.6896837291474136e-03 0.0000000000000000e+00  -1.2652110490057102e-02 1.4834680648335393e-02 0.0000000000000000e+00  -4.6572616097632157e-02 3.4772930105710781e-02 0.0000000000000000e+00  4.6817161105536534e-02 4.2398573734926497e-02 0.0000000000000000e+00  -7.7532562186912832e-02 -1.2308969589423121e-02 0.0000000000000000e+00  1.1243620332830308e-01 5.9866266162891493e-02 0.0000000000000000e+00  6.3851231432591249e-02 1.0914013546495638e-01 0.0000000000000000e+00  -6.1587852571817973e-02 -9.0784405606240084e-02 0.0000000000000000e+00  2.2145208750495311e-02 -1.2094543297597442e-01 0.0000000000000000e+00  -5.2478806243418406e-02 -5.4159419129574116e-02 0.0000000000000000e+00  5.7807407936660464e-03 7.3546229835052115e-02 0.0000000000000000e+00  5.0217151339089099e-02 -5.6344764019528218e-02 0.0000000000000000e+00  -8.1598163341143781e-02 9.6776345630074076e-02 0.0000000000000000e+00  7.6805152797286044e-02 -3.3555825196044321e-03 0.0000000000000000e+00  -5.7378860769677624e-02 -6.3503332740044632e-02 0.0000000000000000e+00  1.2311629407518841e-02 -7.9164648851355865e-02 0.0000000000000000e+00  -1.9311096603063464e-02 -5.8682109939753202e-02 0.0000000000000000e+00  1.9362083195010340e-02 2.9629357767636090e-03 0.0000000000000000e+00  -4.5023585732873019e-03 1.2355779658674479e-01 0.0000000000000000e+00  -1.0691776341566565e-02 -1.7169035890485702e-02 0.0000000000000000e+00  1.4730743550114790e-02 -7.6653493322345986e-02 0.0000000000000000e+00  -9.2267620998494008e-03 -7.8431110894721032e-02 0.0000000000000000e+00  -6.1864150983705180e-02 4.7580504623114840e-02 0.0000000000000000e+00  -1.1077691010594119e-01 5.7627336290515661e-02 0.0000000000000000e+00  5.8149315863720991e-02 5.0775709102930791e-02 0.0000000000000000e+00  1.0772678181367887e-01 -5.6053474893593615e-02 0.0000000000000000e+00  -4.8892466310222399e-02 -5.0818716939099166e-02 0.0000000000000000e+00  -1.4395671120471029e-02 9.2125281799529501e-02 0.0000000000000000e+00  -5.6611211456246173e-03 -7.5220720742349007e-02 0.0000000000000000e+00  1.7210801963462283e-02 1.2328182344623645e-01 0.0000000000000000e+00  -3.4580705862616869e-03 1.1298271751883668e-01 0.0000000000000000e+00  -6.6677470196075325e-02 -5.0682325276806418e-02 0.0000000000000000e+00  1.1480068665262980e-01 -1.3235753536220064e-02 0.0000000000000000e+00  -8.1654990245932924e-02 -9.7083878749275224e-02 0.0000000000000000e+00  5.5906409871738436e-02 -1.1554108996580253e-01 0.0000000000000000e+00  -1.9699119156776782e-03 -6.1503417816823655e-02 0.0000000000000000e+00  4.0815589194415462e-02 -5.4273354553862119e-02 0.0000000000000000e+00  -2.3395003914882255e-03 1.4350120531630320e-01 0.0000000000000000e+00  -1.6157170390723927e-02 1.2034458831301824e-01 0.0000000000000000e+00  -2.4907435472809443e-02 1.0932247382912694e-01 0.0000000000000000e+00  1.2230234948837483e-01 -2.3903340280329536e-02 0.0000000000000000e+00  4.6708850910994991e-02 -5.0731707702664809e-02 0.0000000000000000e+00  -2.8486706855913292e-02 -2.0751456979325567e-02 0.0000000000000000e+00  4.2043589234013724e-02 -3.3776583875825294e-03 0.0000000000000000e+00  2.3161085379399135e-02 7.6851449311457168e-02 0.0000000000000000e+00  -3.1061631150003814e-02 7.6036775092867812e-02 0.0000000000000000e+00  -4.6704716448893485e-02 5.1610120477320935e-02 0.0000000000000000e+00  -1.1831062454574362e-01 -4.8121931422865343e-03 0.0000000000000000e+00  -7.9020682532440045e-02 3.6301075139804045e-02 0.0000000000000000e+00  -3.6561018374685832e-02 -1.2212178666618070e-01 0.0000000000000000e+00  2.3070191605898550e-02 1.0740207191654878e-01 0.0000000000000000e+00  1.1852449744532808e-02 1.2021716305396006e-01 0.0000000000000000e+00  -3.0279222143069693e-02 -9.0397123532527227e-02 0.0000000000000000e+00  -1.7230569605911177e-02 -1.2621823523145978e-01 0.0000000000000000e+00  4.2578891897795963e-02 5.8807893086680288e-02 0.0000000000000000e+00  -9.3444329473897053e-02 -8.4685192810827092e-02 0.0000000000000000e+00  -4.2047824853844062e-02 -6.9191022808677671e-02 0.0000000000000000e+00  -6.2555163179434464e-02 -5.9897989863800370e-02 0.0000000000000000e+00  8.0705621792568516e-02 8.9736279495755800e-02 0.0000000000000000e+00  5.0467099221325383e-02 -9.3164478810770002e-02 0.0000000000000000e+00  -1.0589442783753167e-01 -6.2468052875683862e-02 0.0000000000000000e+00  -2.6020139807657560e-02 1.2665393220886298e-01 0.0000000000000000e+00  7.5199303191914479e-02 -6.3305366827661233e-02 0.0000000000000000e+00  8.7513853362170685e-02 -9.1953557093300858e-02 0.0000000000000000e+00  -1.1986183798113489e-01 -3.1628184242523186e-02 0.0000000000000000e+00  2.9375780135860213e-02 -6.0710611154701576e-02 0.0000000000000000e+00  1.3405150901387348e-02 -2.7113545927620893e-02 0.0000000000000000e+00  -5.4037369359023590e-02 9.1876997161296561e-02 0.0000000000000000e+00  1.1919267204622687e-01 -4.3186100526403488e-02 0.0000000000000000e+00  9.9721652701774952e-02 -7.9721269691624380e-02 0.0000000000000000e+00  7.4354109955928074e-02 7.5021078145188727e-02 0.0000000000000000e+00  1.2907420401960942e-01 -3.4556286972378942e-03 0.0000000000000000e+00  -1.0826564522936317e-01 8.5022579822485300e-03 0.0000000000000000e+00  -6.0726849005739665e-02 -3.8686960486898826e-02 0.0000000000000000e+00  1.1985065628071348e-01 4.9479374508141369e-02 0.0000000000000000e+00  -9.5979296119698465e-02 -3.4698715998670901e-02 0.0000000000000000e+00  -6.5768388958800120e-02 -1.1042991994103145e-01 0.0000000000000000e+00  -6.1563875693795456e-02 -4.4760497886352321e-02 0.0000000000000000e+00  1.2597832418349458e-01 3.3830136660442781e-02 0.0000000000000000e+00  -3.1132684638896279e-03 -5.0659712393546004e-02 0.0000000000000000e+00  7.8524381421193654e-02 -4.2381562518673060e-02 0.0000000000000000e+00  -7.5512634593484659e-02 -6.7118177798859452e-02 0.0000000000000000e+00  8.6620181252459655e-02 9.8940723009263154e-02 0.0000000000000000e+00  7.3952417511307655e-02 4.0878508034261310e-02 0.0000000000000000e+00  -5.7350272675666687e-03 -5.0881251476197181e-02 0.0000000000000000e+00  -4.9435083668325497e-03 -6.0596233088505390e-02 0.00