<?xml version="1.0"?>
<VTKFile type="UnstructuredGrid"  version="0.1"  >
<UnstructuredGrid>
<Piece  NumberOfPoints="1537" NumberOfCells="2944">
<Points>
<DataArray  type="Float64"  NumberOfComponents="3"  format="ascii">-0.9908175519627115 0.3426329691568895 0  -0.9882594582823708 0.2332170477664931 0  -0.973231813264697 0.1237666352642504 0  -0.9457505752081801 0.01663786749820223 0  -0.906629999514031 -0.0862661536555005 0  -0.8561017339947704 -0.1845318136146056 0  -0.7950411243373796 -0.2762225501511818 0  -0.7241690891297722 -0.3605595259131458 0  -0.6460585290123214 -0.4351561325155678 0  -0.5635837700073441 -0.4985605360020945 0  -0.4780742805180294 -0.5513387892856286 0  -0.3885082196617217 -0.5949547577114296 0  -0.2958959895293806 -0.6292263993473943 0  -0.2013898148694428 -0.6537838535631257 0  -0.1047227034461052 -0.6689206163199516 0  -0.01158586222233525 -0.6741225145812102 0  0.07736511567852458 -0.67053190098341 0  0.1731047457762313 -0.6571462211716554 0  0.2666155299524793 -0.6344472888228203 0  0.3593174390352722 -0.6020424784681484 0  0.4485105791222738 -0.5606947072451748 0  0.534298989737105 -0.5100663249194934 0  0.6159978683007213 -0.45008334509911 0  0.6941495146007618 -0.379093177278067 0  0.7666046184696904 -0.297409503937983 0  0.830072215188041 -0.2076020205584783 0  0.8832845640363524 -0.1113104097183678 0  0.9255037739750653 -0.009197757071883635 0  0.9560103202352039 0.09656226776896432 0  0.9744027063047208 0.205182236171594 0  0.9803435099023027 0.3146810107619034 0  0.9739741681065486 0.4239711482064436 0  0.9552977768436449 0.5317811247536629 0  0.9247207002739258 0.636599635789746 0  0.8824837906484601 0.7372402421918925 0  0.8297901120102174 0.8322654717157517 0  0.76674558149747 0.9208990772293885 0  0.6942988229972331 1.001757662834729 0  0.6130019667967488 1.074532374533727 0  0.5239156816586974 1.13785942746476 0  0.4291089614390773 1.190507123647517 0  0.3284509267857864 1.232789605980664 0  0.2241579806960702 1.263568667056554 0  0.1172637742223146 1.282849688980389 0  0.008595049537086449 1.290349256378287 0  -0.1008853779901978 1.285786139966625 0  -0.2086825379350099 1.269253815081878 0  -0.3139988252692583 1.240923878887297 0  -0.414797510882092 1.201476338988764 0  -0.5111662575126447 1.151243062108472 0  -0.6016465126917773 1.090455485304572 0  -0.6845838503561125 1.020372619446428 0  -0.7593462153369717 0.9417081629786603 0  -0.8252521257039793 0.8546414616326168 0  -0.8810791487387026 0.7608845762070787 0  -0.925824213975975 0.6619259607111834 0  -0.9595179167170501 0.5581133484295012 0  -0.9811794020962938 0.4511750360433704 0  -2.804441860112608 0.1013089784270922 0  -2.804440380233904 -0.1013128143922629 0  -2.78982037512589 -0.3034085315585017 0  -2.760646401287995 -0.5039587957950573 0  -2.717149223833289 -0.7015678254929988 0  -2.65926703754822 -0.8963258131231755 0  -2.587888890240851 -1.08532052470911 0  -2.502668802599372 -1.26948639994232 0  -2.404430582954672 -1.447002079210657 0  -2.293928315330017 -1.616490226684007 0  -2.171260500242562 -1.77785688143484 0  -2.037512570852264 -1.929676377375467 0  -1.892759511978218 -2.071827182246979 0  -1.738321379267956 -2.203007951455461 0  -1.574586359749985 -2.322880343687029 0  -1.403394387971301 -2.430140048577937 0  -1.224097492111775 -2.525181169327078 0  -1.0384628015723 -2.607048495216962 0  -0.8479173805909618 -2.675104049075704 0  -0.6526477682021353 -2.729325366978598 0  -0.4539737247531765 -2.769305365076566 0  -0.2532476083559753 -2.794812020552873 0  -0.05036384412834035 -2.805808280419742 0  0.1516308662544611 -2.802160655050891 0  0.3540270527895456 -2.783839301988837 0  0.553386076655582 -2.751156722771744 0  0.7507444455303532 -2.703958703427543 0  0.9438997450029276 -2.642727398593602 0  1.132132491479948 -2.567730640912936 0  1.314467473505081 -2.479344077851791 0  1.490211881956593 -2.377890929605776 0  1.657422079574976 -2.26451941316854 0  1.816931142838443 -2.138660173598239 0  1.966312727186376 -2.002190148585064 0  2.105707226200361 -1.855032693669072 0  2.233891256462329 -1.698482816080202 0  2.350751427826481 -1.532635044777815 0  2.455354600996905 -1.358799611374878 0  2.546886960884665 -1.178350714635649 0  2.625290124783336 -0.9914676331635565 0  2.689985623351177 -0.7994585966065587 0  2.74066659615175 -0.6032314743060999 0  2.777000839624209 -0.4041873294815023 0  2.798963956329784 -0.2022425233805851 0  2.806267225416118 -1.340337348807073e-06 0  2.798964423934941 0.2022417379920832 0  2.777012409808904 0.4039274742883452 0  2.740585877362937 0.6035566536061486 0  2.690063120370481 0.7991574604926746 0  2.625253334215365 0.9914570262780693 0  2.546786040813982 1.178551090468103 0  2.455252124300735 1.35900032978834 0  2.350772655914602 1.532654609453441 0  2.234055175676639 1.698279788051236 0  2.105664206264833 1.855081762669199 0  1.966515790772386 2.00198026127175 0  1.816721984668883 2.138803750822318 0  1.657647024169275 2.264323060880752 0  1.489697900702303 2.378213651825227 0  1.314740848910906 2.479225065269009 0  1.131869492371111 2.567873155782906 0  0.9441969909555739 2.64264932868863 0  0.7507469497184232 2.703958657347253 0  0.553386954167842 2.751158017634628 0  0.3540266290849156 2.783840339629113 0  0.1519266860704321 2.802121150321944 0  -0.05096700507496776 2.805799371520674 0  -0.252695616481363 2.794860839362708 0  -0.454255033158974 2.769253422991426 0  -0.6526133040465963 2.729333169310443 0  -0.8479228650338494 2.675105073077941 0  -1.038468043353654 2.607047533579234 0  -1.224376779540434 2.525074883753192 0  -1.402870403204818 2.430444073756469 0  -1.574819349618333 2.322694464846169 0  -1.73832359755983 2.203006593732605 0  -1.892992393453933 2.071636650359538 0  -2.037124373071999 1.930081660059903 0  -2.171257088651559 1.777808812067519 0  -2.294047529562612 1.616309362775934 0  -2.404572382481596 1.44678107670343 0  -2.50257855388914 1.269726193325652 0  -2.587758483359625 1.085591698912766 0  -2.65945693189154 0.8957560585003521 0  -2.717009301487909 0.7021051878257955 0  -2.76069096733625 0.5036735701217948 0  -2.78981416284811 0.3034432025779202 0  0.08033035108319553 -1.738609846472066 0  -0.9318993949903563 -1.500520804972048 0  1.084329615899984 -1.400291206570354 0  -0.007214241945598206 0.3155417120469801 0  -1.654047851706073 -0.7725475800952419 0  1.70528577391134 -0.659162494240778 0  -1.894290052375741 0.1279647549948382 0  1.883732956296263 0.2519716928467716 0  -1.722552617979872 0.9468841635655457 0  1.661833734510061 1.052997006655418 0  -1.198525949854664 1.625605963260197 0  1.139389609132052 1.667982537796104 0  -0.4557113064079606 1.992909272359989 0  0.3339247045277356 2.021071607015273 0  -0.5305896302131886 -2.052013292095177 0  0.7918796486024208 -1.994337352443687 0  -1.598509131068335 -1.431230287514311 0  1.702917222128209 -1.396442154337554 0  -2.172237228059608 -0.4822969853868748 0  -0.2646635528114862 -1.257145124247152 0  0.4598739341721779 -1.249311516425942 0  2.182295307771545 -0.2740613563072564 0  -1.017087682464458 -0.9133691560848948 0  1.117651647750709 -0.8089301050201974 0  0.2047575822027104 -2.269811426909933 0  -1.061447194850711 -2.02070545647536 0  2.125055322242045 0.7555983801768786 0  1.30354152021868 -1.880683662899147 0  -2.173999834313587 0.6393481913005754 0  1.403288751234604 -0.2271958393469199 0  -1.454736173168865 -0.2462343274908198 0  -2.008676331259559 -1.137969228763301 0  0.4831672413477335 0.4025622968953134 0  -0.5012889388531477 0.3616470396563737 0  0.009627949829677736 -0.1656376786563552 0  0.1547023676997954 0.777305619939769 0  -1.718705349242025 1.490189058452126 0  1.654840491227106 1.581658032460034 0  2.059618946413829 -1.032505914806911 0  -1.501357043404382 0.4662233271945447 0  0.8510322768789539 2.12542041960485 0  -0.9619841517919878 2.086141452660239 0  -2.338586317623027 -0.04181355966037516 0  1.44104113075303 0.4142662515517669 0  2.340950844778805 0.1590324975875198 0  -0.07179677415946051 2.311995144203172 0  1.187266187401383 1.173745122861331 0  -1.252361703099217 1.120416013166877 0  0.6464075227357988 1.634231464863986 0  2.072543190648423 1.178735385778697 0  -2.134888622416365 1.062258287715235 0  -0.6705192787998764 -1.157483875178691 0  -0.6725412015105304 1.582266398455593 0  -0.05169591367782075 1.753394535887128 0  -0.3264427921632239 -1.675972502522652 0  1.493628367151554 -1.023652614600179 0  -1.13384901795641 -0.5205502046316648 0  0.715244187454066 -1.582862882865397 0  1.297812159749829 0.7864788864788008 0  -0.2986405916539042 0.7642962703459202 0  0.703432946513083 -0.9172375764025729 0  0.4154228831199748 -0.02809331159074513 0  -1.293197293117582 -1.692808152684956 0  -0.3992511158081511 -0.0608868628641306 0  -0.2214196857928613 -2.360627867846442 0  -1.536212081711038 1.853906978500208 0  1.448567240578307 1.925968800879037 0  -0.654994915481673 2.335473971399822 0  2.28821485604623 -0.6796536535818936 0  -1.237339836964445 -1.249329519636114 0  0.3008201913228372 2.406663982693011 0  1.791428732035214 -0.2901509659897614 0  0.09641402597826035 -1.341050391115514 0  0.442964176036675 -1.839023345881241 0  1.740597818928077 0.6739334797405131 0  -0.9546854442527406 1.340299347859261 0  -1.792430113801866 -0.4262756927030781 0  -1.353359108373278 0.1122743413241564 0  1.074199501028591 -2.218288634636504 0  0.5957096764006682 -2.340155201986989 0  0.8635091505968908 1.338515689303493 0  -1.650451190343796 -1.797133024630178 0  -2.41472447450062 0.3470301803581565 0  0.2849184729710888 1.61868069539098 0  -1.278952034214925 0.7524278585272134 0  -0.8147256166265597 -2.303282808658869 0  -2.274855154838682 -0.8552726089976136 0  0.1937256267121376 -1.014615424201755 0  -0.7781032967260243 -1.809859360847999 0  -0.1681758225995295 -2.000278092460795 0  -1.8233231456815 0.6156522298382786 0  1.659692828816621 -1.817463000154834 0  -1.956066320283205 -1.492856465636047 0  1.647951947794423 0.007619865834643188 0  -1.670601396543946 -1.105426686
[...]
<PointData  Vectors="f_5123-0"> 
<DataArray  type="Float64"  Name="f_5123-0"  NumberOfComponents="3" format="ascii">-4.5622287198016946e-03 -5.5687027229358692e-02 0.0000000000000000e+00  9.1123766362991975e-03 -6.5436872188219045e-02 0.0000000000000000e+00  2.5574585540483870e-02 -7.6163655498818109e-02 0.0000000000000000e+00  4.4971320058968714e-02 -8.5318181382064803e-02 0.0000000000000000e+00  6.5906157656086872e-02 -9.0288178977370431e-02 0.0000000000000000e+00  8.9157401285289400e-02 -9.3839756758037907e-02 0.0000000000000000e+00  1.1212544597130086e-01 -9.2582667738415919e-02 0.0000000000000000e+00  1.3622995621940290e-01 -8.6558827422124673e-02 0.0000000000000000e+00  1.5180928210986658e-01 -7.1097934462728940e-02 0.0000000000000000e+00  1.5327784499833838e-01 -4.7846380238771365e-02 0.0000000000000000e+00  1.4371700006947871e-01 -2.1826325428608521e-02 0.0000000000000000e+00  1.2906539954194610e-01 1.6591777753584653e-03 0.0000000000000000e+00  1.0926470858274995e-01 2.2178853859897173e-02 0.0000000000000000e+00  8.3802043651159577e-02 3.8648992845150956e-02 0.0000000000000000e+00  5.6746261257137796e-02 4.9419893262649429e-02 0.0000000000000000e+00  1.6675960904514564e-02 5.6133842500608024e-02 0.0000000000000000e+00  -3.6501917552588269e-02 5.4015346907461875e-02 0.0000000000000000e+00  -6.6949442608926477e-02 4.4312039623075651e-02 0.0000000000000000e+00  -9.4619260467523392e-02 2.9382508901123882e-02 0.0000000000000000e+00  -1.1580790967529121e-01 1.0768533993923166e-02 0.0000000000000000e+00  -1.3435596656306201e-01 -1.2418628066206416e-02 0.0000000000000000e+00  -1.4687079854319224e-01 -3.7720133145564258e-02 0.0000000000000000e+00  -1.5227840047871138e-01 -6.4147548791281067e-02 0.0000000000000000e+00  -1.4461377676319107e-01 -8.4798600051905815e-02 0.0000000000000000e+00  -1.2475753689763484e-01 -9.4920533235169163e-02 0.0000000000000000e+00  -1.0162145990039481e-01 -9.8546569270228160e-02 0.0000000000000000e+00  -7.8406768442234515e-02 -9.7660631240346060e-02 0.0000000000000000e+00  -5.5974428105028659e-02 -9.2483404801883523e-02 0.0000000000000000e+00  -3.5964012336421797e-02 -8.5115773211314305e-02 0.0000000000000000e+00  -1.8286308550797197e-02 -7.5282032843540958e-02 0.0000000000000000e+00  -3.4825646735516871e-03 -6.5088463622977225e-02 0.0000000000000000e+00  8.9014168041917623e-03 -5.4326238549208289e-02 0.0000000000000000e+00  1.9000763747338261e-02 -4.2421511400975186e-02 0.0000000000000000e+00  2.6849171171107047e-02 -3.0559556300268367e-02 0.0000000000000000e+00  3.2284379789811218e-02 -1.8383206172852763e-02 0.0000000000000000e+00  3.6394687954399221e-02 -7.6994438128272372e-03 0.0000000000000000e+00  3.8271911955141659e-02 3.2308437260811138e-03 0.0000000000000000e+00  3.8754563069453331e-02 1.3130038945151485e-02 0.0000000000000000e+00  3.6632598928463954e-02 2.3336444738271626e-02 0.0000000000000000e+00  3.2138885722581209e-02 3.2796053122869685e-02 0.0000000000000000e+00  2.8658485223100962e-02 3.9511321746722110e-02 0.0000000000000000e+00  2.1962705120901507e-02 4.6028496345249303e-02 0.0000000000000000e+00  1.5538443560818098e-02 5.0502358124851224e-02 0.0000000000000000e+00  8.8695675093095078e-03 5.3422689078086096e-02 0.0000000000000000e+00  1.3447601887003710e-03 5.4893167142300699e-02 0.0000000000000000e+00  -8.0089236984207789e-03 5.4510549976278404e-02 0.0000000000000000e+00  -1.5877902248781276e-02 5.2333040150762296e-02 0.0000000000000000e+00  -2.3828728789888634e-02 4.8217803011853265e-02 0.0000000000000000e+00  -2.8543674244644428e-02 4.3416587762603015e-02 0.0000000000000000e+00  -3.3355624063587365e-02 3.6960213425059972e-02 0.0000000000000000e+00  -3.7570903655271680e-02 2.8730380702324056e-02 0.0000000000000000e+00  -3.9621407835084062e-02 2.0052795989948826e-02 0.0000000000000000e+00  -3.9885204150634984e-02 1.0841406224346289e-02 0.0000000000000000e+00  -3.9497463979229916e-02 -5.3362263727067794e-04 0.0000000000000000e+00  -3.6942976360729733e-02 -1.2163084292435504e-02 0.0000000000000000e+00  -3.1759785097706057e-02 -2.2654246927041530e-02 0.0000000000000000e+00  -2.5038529334252057e-02 -3.4533226413207267e-02 0.0000000000000000e+00  -1.5918110602926101e-02 -4.5793128995625702e-02 0.0000000000000000e+00  -1.6760598314179362e-01 6.0389268437169965e-03 0.0000000000000000e+00  -1.6760010741737585e-01 -6.0536645921305194e-03 0.0000000000000000e+00  -1.6673050336750778e-01 -1.8122571643091168e-02 0.0000000000000000e+00  -1.6495419915999654e-01 -3.0245014667363151e-02 0.0000000000000000e+00  -1.6260764271472367e-01 -4.0911964647042831e-02 0.0000000000000000e+00  -1.5850293217356187e-01 -5.4708514458161696e-02 0.0000000000000000e+00  -1.5509938631156386e-01 -6.3700444092493674e-02 0.0000000000000000e+00  -1.4944137814527214e-01 -7.5802236964198633e-02 0.0000000000000000e+00  -1.4311517626080258e-01 -8.7373897764974617e-02 0.0000000000000000e+00  -1.3717359809712049e-01 -9.6484193851592334e-02 0.0000000000000000e+00  -1.2966758586679733e-01 -1.0635786928498700e-01 0.0000000000000000e+00  -1.2247783799228604e-01 -1.1452934471151013e-01 0.0000000000000000e+00  -1.1306184158565613e-01 -1.2373261226520485e-01 0.0000000000000000e+00  -1.0381854939091155e-01 -1.3158322820667431e-01 0.0000000000000000e+00  -9.3054964830376882e-02 -1.3948356189493524e-01 0.0000000000000000e+00  -8.4932703167948209e-02 -1.4457395983460186e-01 0.0000000000000000e+00  -7.3097717711676780e-02 -1.5078872876639057e-01 0.0000000000000000e+00  -6.1058357486718888e-02 -1.5617066806972987e-01 0.0000000000000000e+00  -5.0794846365671394e-02 -1.5982840844371074e-01 0.0000000000000000e+00  -3.9006651004544549e-02 -1.6312185127531154e-01 0.0000000000000000e+00  -2.7007646393382954e-02 -1.6551594813835510e-01 0.0000000000000000e+00  -1.6175384158740789e-02 -1.6690145342406382e-01 0.0000000000000000e+00  -1.7786000711478517e-03 -1.6766628543824896e-01 0.0000000000000000e+00  7.8446678768492907e-03 -1.6749170829381785e-01 0.0000000000000000e+00  2.2374311442700971e-02 -1.6617601307958474e-01 0.0000000000000000e+00  3.1843719158258989e-02 -1.6462634167665954e-01 0.0000000000000000e+00  4.4816437041132848e-02 -1.6150855136024142e-01 0.0000000000000000e+00  5.6357292064809390e-02 -1.5781162093707982e-01 0.0000000000000000e+00  6.7600673913970732e-02 -1.5333967335450066e-01 0.0000000000000000e+00  7.8507960250150333e-02 -1.4805745959429986e-01 0.0000000000000000e+00  9.0089665180894118e-02 -1.4141793125353327e-01 0.0000000000000000e+00  9.8032898659196649e-02 -1.3603147460919277e-01 0.0000000000000000e+00  1.0936548595835704e-01 -1.2710758971287583e-01 0.0000000000000000e+00  1.1740947901474143e-01 -1.1975628937660039e-01 0.0000000000000000e+00  1.2593454382274233e-01 -1.1075472831966174e-01 0.0000000000000000e+00  1.3284683269564718e-01 -1.0232689970406242e-01 0.0000000000000000e+00  1.4040337409853298e-01 -9.1534719075221177e-02 0.0000000000000000e+00  1.4722048435435828e-01 -8.0265223159221272e-02 0.0000000000000000e+00  1.5214911292167516e-01 -7.0536681936819445e-02 0.0000000000000000e+00  1.5690413631354644e-01 -5.9237128849791668e-02 0.0000000000000000e+00  1.6075797933109501e-01 -4.7800787917082914e-02 0.0000000000000000e+00  1.6381218136411738e-01 -3.5914899626187713e-02 0.0000000000000000e+00  1.6577407155824497e-01 -2.5198392852455082e-02 0.0000000000000000e+00  1.6731345696941155e-01 -1.1054838020541753e-02 0.0000000000000000e+00  1.6769839862752914e-01 -5.2843254942430619e-06 0.0000000000000000e+00  1.6731543194135404e-01 1.1050499801948069e-02 0.0000000000000000e+00  1.6582787419023282e-01 2.4120018216049994e-02 0.0000000000000000e+00  1.6347905187087253e-01 3.7263588094631872e-02 0.0000000000000000e+00  1.6108069772980010e-01 4.6552916649406896e-02 0.0000000000000000e+00  1.5675925549307185e-01 5.9195433519521029e-02 0.0000000000000000e+00  1.5173019372172511e-01 7.1373005092696618e-02 0.0000000000000000e+00  1.4679188073211255e-01 8.1099831642272691e-02 0.0000000000000000e+00  1.4048890145527912e-01 9.1608863893325648e-02 0.0000000000000000e+00  1.3352465006093592e-01 1.0148481017499421e-01 0.0000000000000000e+00  1.2575901940962891e-01 1.1095475000560855e-01 0.0000000000000000e+00  1.1825294465589152e-01 1.1888712523969037e-01 0.0000000000000000e+00  1.0850331986472085e-01 1.2770636556201018e-01 0.0000000000000000e+00  9.8967805216388940e-02 1.3522378806927907e-01 0.0000000000000000e+00  8.7956458847915905e-02 1.4275726715331377e-01 0.0000000000000000e+00  7.9637952704419868e-02 1.4755950318283442e-01 0.0000000000000000e+00  6.6505079252711499e-02 1.5392614924504572e-01 0.0000000000000000e+00  5.7589911474408513e-02 1.5748084587610364e-01 0.0000000000000000e+00  4.4828509087694396e-02 1.6150765203691989e-01 0.0000000000000000e+00  3.1846911059345950e-02 1.6463153402175879e-01 0.0000000000000000e+00  2.2373609663159585e-02 1.6618013712282223e-01 0.0000000000000000e+00  9.0724651698635850e-03 1.6733372293856097e-01 0.0000000000000000e+00  -4.2826299534296708e-03 1.6762893933999057e-01 0.0000000000000000e+00  -1.3881921142202252e-02 1.6710389715757773e-01 0.0000000000000000e+00  -2.8175900968822647e-02 1.6530177674299462e-01 0.0000000000000000e+00  -3.8865944089606232e-02 1.6315315306680883e-01 0.0000000000000000e+00  -5.0815956896219379e-02 1.5983259903515681e-01 0.0000000000000000e+00  -6.1081253725270034e-02 1.5616580396669358e-01 0.0000000000000000e+00  -7.4254372096748567e-02 1.5034138725221274e-01 0.0000000000000000e+00  -8.2756509670420267e-02 1.4583619613638760e-01 0.0000000000000000e+00  -9.4026133737466447e-02 1.3871609573462457e-01 0.0000000000000000e+00  -1.0382639365067092e-01 1.3157829181296651e-01 0.0000000000000000e+00  -1.1402749967655680e-01 1.2293638020488977e-01 0.0000000000000000e+00  -1.2086453160810891e-01 1.1621346611979233e-01 0.0000000000000000e+00  -1.2965912443628519e-01 1.0616305997561346e-01 0.0000000000000000e+00  -1.3767291557522160e-01 9.5729969445419852e-02 0.0000000000000000e+00  -1.4370225047577254e-01 8.6453946355422362e-02 0.0000000000000000e+00  -1.4905993300115189e-01 7.6796965489955557e-02 0.0000000000000000e+00  -1.5456163079027588e-01 6.4827716958670484e-02 0.0000000000000000e+00  -1.5929061118032781e-01 5.2345947758223509e-02 0.0000000000000000e+00  -1.6202669042612630e-01 4.3141398473363277e-02 0.0000000000000000e+00  -1.6514093242838176e-01 2.9061405593196626e-02 0.0000000000000000e+00  -1.6670483864791016e-01 1.8264404447085100e-02 0.0000000000000000e+00  -6.5460963744514756e-04 -6.2172923342226308e-02 0.0000000000000000e+00  -1.8586581648897087e-02 -8.1245483809493507e-02 0.0000000000000000e+00  2.8157873840360233e-02 -8.1396600662659191e-02 0.0000000000000000e+00  -4.7180392889777760e-03 8.3628088842855539e-02 0.0000000000000000e+00  -5.9121569206337779e-02 -5.5323058204845101e-02 0.0000000000000000e+00  6.3739335808665018e-02 -5.0107548373557922e-02 0.0000000000000000e+00  -8.5712290320442905e-02 -2.9062223232456080e-02 0.0000000000000000e+00  8.6324496607142337e-02 -2.2416910695943572e-02 0.0000000000000000e+00  -1.0214335188020383e-01 1.4546090623397621e-02 0.0000000000000000e+00  1.0065135275901364e-01 2.1713260963035594e-02 0.0000000000000000e+00  -8.6680306659487602e-02 7.1907660688083255e-02 0.0000000000000000e+00  8.4261960125104743e-02 7.4221319552228326e-02 0.0000000000000000e+00  -3.5259765938360818e-02 1.1069291820721402e-01 0.0000000000000000e+00  2.8698611220212882e-02 1.1219092752404645e-01 0.0000000000000000e+00  -2.2669703465132553e-02 -1.1620616161362644e-01 0.0000000000000000e+00  3.6196433188898952e-02 -1.1752576667608258e-01 0.0000000000000000e+00  -8.6959049237001249e-02 -8.9146623157928095e-02 0.0000000000000000e+00  9.7658785981937654e-02 -8.8180532535700046e-02 0.0000000000000000e+00  -1.2336737364233344e-01 -4.2910613622648766e-02 0.0000000000000000e+00  4.1436874937638063e-02 -2.4957409466049785e-02 0.0000000000000000e+00  -4.2946813129123643e-02 -4.6792270729667372e-02 0.0000000000000000e+00  1.2307064035069318e-01 -3.1380281263441577e-02 0.0000000000000000e+00  2.0445413580173898e-02 -5.9594663399987369e-02 0.0000000000000000e+00  -1.2650680605119280e-02 -5.8629959455275840e-02 0.0000000000000000e+00  9.8161269806001875e-03 -1.3609159404024443e-01 0.0000000000000000e+00  -5.9228747559093756e-02 -1.2574514433924255e-01 0.0000000000000000e+00  1.3326735277175120e-01 2.1071747088067357e-02 0.0000000000000000e+00  7.4558018696831443e-02 -1.1882422667813201e-01 0.0000000000000000e+00  -1.3577769837543718e-01 1.3894213480725417e-02 0.0000000000000000e+00  -5.8183485348945281e-03 -5.3901328668213379e-02 0.0000000000000000e+00  -3.9721104461147311e-03 -5.3358857771100748e-02 0.0000000000000000e+00  -1.1986019247549748e-01 -7.4261906877338316e-02 0.0000000000000000e+00  1.7888157808650669e-02 3.9590999564190633e-02 0.0000000000000000e+00  -2.1549234287038199e-02 3.7240496528933902e-02 0.0000000000000000e+00  -1.4152616873142128e-02 1.2869166968029061e-01 0.0000000000000000e+00  9.2901542360524832e-03 6.8732804413387583e-02 0.0000000000000000e+00  -1.2000931769532816e-01 7.0627626519942685e-02 0.0000000000000000e+00  1.1682819538999227e-01 7.7859772354724271e-02 0.0000000000000000e+00  1.2364124040695197e-01 -6.7423678768077464e-02 0.0000000000000000e+00  -4.7867866840106535e-02 -3.4386942025383782e-02 0.0000000000000000e+00  6.6372386362095082e-02 1.2448343950684465e-01 0.0000000000000000e+00  -7.2717601917072966e-02 1.2200611655872011e-01 0.0000000000000000e+00  -1.4199492189877347e-01 -1.9118852155070934e-02 0.0000000000000000e+00  3.3932571618986704e-02 -4.1461775994176345e-02 0.0000000000000000e+00  1.4346596630741881e-01 -6.3572253074544701e-03 0.0000000000000000e+00  -4.1216852818299170e-03 1.4350110546307052e-01 0.0000000000000000e+00  6.9055533917734419e-02 1.5780899154582029e-02 0.0000000000000000e+00  -7.2513878648873473e-02 1.4373199045648885e-02 0.0000000000000000e+00  4.9487984858462952e-02 6.7527893031957456e-02 0.0000000000000000e+00  1.3847771269622527e-01 5.4371058842640006e-02 0.0000000000000000e+00  -1.4154053990706497e-01 4.6227403314491378e-02 0.0000000000000000e+00  3.7656395769072121e-02 -6.5309216922419588e-02 0.0000000000000000e+00  -4.8515403058308336e-02 6.3993911151756039e-02 0.0000000000000000e+00  -2.1776669736854005e-03 8.5312881189261003e-02 0.0000000000000000e+00  3.8201752226614824e-03 -6.2092823151843585e-02 0.0000000000000000e+00  5.5414011268050754e-02 -6.4959990570768164e-02 0.0000000000000000e+00  4.9185835258839267e-02 -5.6313156919121796e-02 0.0000000000000000e+00  5.1991503620320073e-03 -7.6224436961585415e-02 0.0000000000000000e+00  5.2141402966623687e-02 -1.9971877026747235e-02 0.0000000000000000e+00  -2.2859143980937819e-02 6.1694612027762094e-02 0.0000000000000000e+00  -5.6688394141356305e-02 -6.4445563001692061e-02 0.0000000000000000e+00  -3.2570733056369282e-02 6.0503179796493903e-02 0.0000000000000000e+00  -6.6893493056069814e-02 -1.0351744593771270e-01 0.0000000000000000e+00  2.9607492731869536e-02 6.3648478986824089e-02 0.0000000000000000e+00  -1.2435790305075101e-02 -1.4573333245929904e-01 0.0000000000000000e+00  -1.1014000829847492e-01 1.0453306560311892e-01 0.0000000000000000e+00  1.0509740578325152e-01 1.0970476116398482e-01 0.0000000000000000e+00  -4.8630099044233911e-02 1.4553012000797164e-01 0.0000000000000000e+00  1.4006852613169593e-01 -4.8084463735264982e-02 0.0000000000000000e+00  -3.5455738018230341e-02 -7.4027197084122157e-02 0.0000000000000000e+00  2.4177280880977994e-02 1.5129192617096407e-01 0.0000000000000000e+00  6.4827608549388613e-02 -4.0591351964799197e-02 0.0000000000000000e+00  -1.1450782989678365e-02 -9.9303292332985366e-03 0.0000000000000000e+00  8.2048178164086365e-03 -8.7500856018427040e-02 0.0000000000000000e+00  8.8095052292389162e-02 -6.8672271078653894e-03 0.0000000000000000e+00  -6.1866962885499747e-02 3.6267005243082961e-02 0.0000000000000000e+00  -6.6709503892005348e-02 -4.6351181888808907e-02 0.0000000000000000e+00  -4.1371144436288818e-03 -5.8587807269472381e-02 0.0000000000000000e+00  6.4280277796112353e-02 -1.4164067166690517e-01 0.0000000000000000e+00  3.3534969476638074e-02 -1.4699247995369050e-01 0.0000000000000000e+00  5.7816109016597540e-02 3.3182746321230680e-02 0.0000000000000000e+00  -1.0270076849968966e-01 -1.1464441624213786e-01 0.0000000000000000e+00  -1.5283837504280368e-01 5.9637457743532876e-03 0.0000000000000000e+00  2.3134940940927228e-02 6.8284971607267639e-02 0.0000000000000000e+00  -4.9207784178236527e-02 -2.2770810346674105e-02 0.0000000000000000e+00  -4.8222599450318634e-02 -1.4572409372996281e-01 0.0000000000000000e+00  -1.4015779452782443e-01 -5.8796918884873414e-02 0.0000000000000000e+00  -6.1063918356809736e-02 -9.6087457702731197e-03 0.0000000000000000e+00  -2.6637230643015194e-02 -9.8631880602571331e-02 0.0000000000000000e+00  -5.2591581219834926e-03 -1.0160708377767642e-01 0.0000000000000000e+00  -9.6045233219128695e-02 -6.9148829834628119e-03 0.0000000000000000e+00  1.0359082036312431e-01 -1.1633591247329708e-01 0.0000000000000000e+00  -1.2252344022022686e-01 -9.5274527784545593e-02 0.0000000000000000e+00  4.1635979600134605e-02 -4.1476056651114319e-02 0.0000000000000000e+00  -7.9777194037357418e-02 -7.0064914781625395e-02 0.0000000000000000e+00  1.2885663161171604e-01 -8.7693882134828302e-02 0.0000000000000000e+00  -1.0082531748386307e-01 -3.4901014906589270e-02 0.0000000000000000e+00  2.0730969032131791e-03 -5.0884191176767755e-02 0.0000000000000000e+00  4.0965721885729098e-02 -1.0162823171360336e-01 0.0000000000000000e+00  -1.0694278174226853e-02 -6.2345231176331548e-02 0.0000000000000000e+00  -9.9383959267394482e-03 -5.4525623166962987e-02 0.0000000000000000e+00  -2.4211731141130993e-02 6.6839673169534874e-02 0.0000000000000000e+00  -1.5435060845528151e-01 -3.1085991387472336e-02 0.0000000000000000e+00  -6.9173612698773299e-02 -6.6524177258327447e-02 0.0000000000000000e+00  1.2274801013350000e-02 -6.2668268237820790e-02 0.0000000000000000e+00  1.5238338142941102e-01 1.7309196640890256e-02 0.0000000000000000e+00  2.8688162795819917e-02 3.8044166646536974e-02 0.0000000000000000e+00  -1.7508027333429620e-02 -6.9380522425852242e-02 0.0000000000000000e+00  8.0652114156301344e-02 -4.2792770103007562e-02 0.0000000000000000e+00  8.7321376995216859e-02 1.2978981825435829e-01 0.0000000000000000e+00  -8.6803495907160688e-02 -1.2967666491503685e-01 0.0000000000000000e+00  7.5376073709431890e-02 -6.2919012931885634e-02 0.0000000000000000e+00  7.1307994831332502e-02 -9.5900758059249261e-02 0.0000000000000000e+00  1.5512606249163252e-01 -1.7217240804158797e-02 0.0000000000000000e+00  -9.1745065901470996e-02 1.0867267169487335e-01 0.0000000000000000e+00  -1.0332491510671944e-01 -5.4519150142326882e-02 0.0000000000000000e+00  4.8324737480552493e-02 1.4921615898685572e-01 0.0000000000000000e+00  9.7095785080991162e-02 4.0808609410130439e-02 0.0000000000000000e+00  1.0193673616093465e-01 -4.4033053331836748e-02 0.0000000000000000e+00  9.4068465630465392e-02 -2.8723304110970588e-02 0.0000000000000000e+00  4.5295598700581918e-02 6.6888982299304909e-03 0.0000000000000000e+00  -7.6553421215851319e-02 -6.5406313296529600e-02 0.0000000000000000e+00  -1.2547458463475542e-01 4.8870532652386660e-02 0.0000000000000000e+00  -1.0014401735555704e-01 3.4039938721886716e-02 0.0000000000000000e+00  -2.2457922939308810e-02 1.5832301241460839e-01 0.0000000000000000e+00  -1.3392821794344889e-02 -4.6050900196516947e-02 0.0000000000000000e+00  5.4388141627416137e-03 -6.9294815019961029e-02 0.0000000000000000e+00  -3.1450394487586596e-02 -1.5411967392218379e-01 0.0000000000000000e+00  1.3457599739658094e-01 8.0270391202883970e-02 0.0000000000000000e+00  2.3195552467245874e-03 -1.5902156461769953e-01 0.0000000000000000e+00  1.5112306465490960e-01 4.9291515426582007e-02 0.0000000000000000e+00  -1.3624456135712534e-01 8.4236404994415939e-02 0.0000000000000000e+00  1.1939553867468262e-01 -1.0380432438494853e-01 0.0000000000000000e+00  -3.2765569576378467e-02 2.5416404164851612e-02 0.0000000000000000e+00  1.5174409933372765e-01 -3.3257640911101075e-02 0.000