<?xml version="1.0"?>
<VTKFile type="UnstructuredGrid"  version="0.1"  >
<UnstructuredGrid>
<Piece  NumberOfPoints="1127" NumberOfCells="2108">
<Points>
<DataArray  type="Float64"  NumberOfComponents="3"  format="ascii">-1.011135745603424 0.1039543635956917 0  -1.000738471655976 -0.008473221581050565 0  -0.9771421314051878 -0.1196129118102201 0  -0.9402373178587522 -0.227935936290667 0  -0.8906242410502491 -0.3314116653690675 0  -0.8296744151615104 -0.4275287632045746 0  -0.758181149396098 -0.5155448712731322 0  -0.6792411204298698 -0.5932176753978941 0  -0.5981706121809011 -0.6574706816308961 0  -0.5165875204015388 -0.7098563112685488 0  -0.4315944087229046 -0.7537604041588946 0  -0.3447498217831488 -0.7888862381261391 0  -0.2554395459883693 -0.8157565539458514 0  -0.1639252989455658 -0.8345250992221144 0  -0.07216669876219041 -0.8449517866832705 0  0.01946880920864045 -0.8472306486714042 0  0.1105409291224685 -0.8412332792349753 0  0.2019604765243605 -0.8271763098386254 0  0.2920823161003568 -0.8049516905478949 0  0.3812037527015562 -0.7741322441477064 0  0.4670973002178274 -0.7352570843916834 0  0.5502658666704295 -0.6878040584094215 0  0.6308680615947604 -0.6311830704314462 0  0.7107649352513178 -0.5618541849083002 0  0.7857232579699579 -0.4811240952456068 0  0.8525425048176579 -0.3907017292268931 0  0.9093568186067424 -0.2911889261873705 0  0.9544534625591161 -0.1849359946146991 0  0.9861263722755068 -0.07573204238026902 0  1.00493886726123 0.03650719943956805 0  1.010055652595111 0.1498489016753243 0  1.002029237499315 0.2620782815673157 0  0.9812940459265667 0.3722452559531281 0  0.9472884952907974 0.4800766418913365 0  0.9010591171405835 0.5833194560602972 0  0.8442363644570521 0.6789549743792123 0  0.7758024784400489 0.7690608513182535 0  0.6978834301554507 0.8504781578893202 0  0.6114941790164418 0.9223964205172771 0  0.5171274744279108 0.9847244985563212 0  0.4160851207171722 1.036200833863298 0  0.3113115261065676 1.075749525024236 0  0.2009942670163978 1.104210536560141 0  0.08931891660166207 1.120246119322055 0  -0.02351840962165746 1.123949524016075 0  -0.1357116450256695 1.115247615485176 0  -0.2476508155399799 1.094042640637232 0  -0.3558658554423259 1.060953582097554 0  -0.4587023706495251 1.016595140452671 0  -0.5573780294802912 0.9604670601106058 0  -0.6485552508174881 0.8941863202665681 0  -0.7311232604315814 0.8187557408018178 0  -0.8049101197887742 0.7343528533360834 0  -0.8692456428731711 0.6414339603384801 0  -0.9223256486321881 0.5419306909793771 0  -0.9635626280826983 0.4375723803875512 0  -0.9923637702893342 0.3289928805424017 0  -1.008600616365502 0.2161796216334172 0  2.332711600107463 7.315407523692359e-06 0  2.323835318038892 0.203305194556662 0  2.297277458675172 0.4050601401755733 0  2.253218337280132 0.6037425074501925 0  2.192036270538512 0.7978302104248164 0  2.114143176576565 0.9858396123923103 0  2.020188340830987 1.166362441894607 0  1.910839696921091 1.337983771380767 0  1.786963341483158 1.499444126872735 0  1.649477519689806 1.649467735489676 0  1.499439715513649 1.786953795639676 0  1.33800166861582 1.910847149554707 0  1.166355088456272 2.020179473014498 0  0.9858459333957124 2.114147823715223 0  0.7978341134244056 2.192026311045964 0  0.6037498685365983 2.253221662224702 0  0.4050703016916037 2.297269443859238 0  0.2033170395239864 2.323847074117372 0  3.459151112921368e-07 2.332707078627469 0  -0.2033113543656313 2.323832751315599 0  -0.4050829314034092 2.297282986644706 0  -0.6037500828037918 2.253238952799496 0  -0.797832437672411 2.192027452851021 0  -0.9858473961040978 2.114151257627361 0  -1.166361751875479 2.020196273056435 0  -1.337988683745949 1.910839914611121 0  -1.499435636910901 1.786954518837033 0  -1.649473768392049 1.64946974483966 0  -1.786970469114216 1.49943842017842 0  -1.910849657120903 1.337993702491157 0  -2.020181346175265 1.166350159201028 0  -2.114145699738903 0.9858368982557225 0  -2.192038832258938 0.7978240970029608 0  -2.253228969623773 0.6037480255951093 0  -2.297273667427756 0.4050747685761804 0  -2.323823952357643 0.2033093226537506 0  -2.332710050822982 -4.319560829714524e-07 0  -2.323836104988722 -0.2033081324355496 0  -2.29727283948972 -0.4050708813972956 0  -2.253210796525804 -0.6037463840536151 0  -2.192030216697259 -0.7978385218260848 0  -2.114156933476444 -0.9858428696154209 0  -2.020192756061036 -1.16634940063437 0  -1.91083823219121 -1.337980544293099 0  -1.786963942503921 -1.499442231171695 0  -1.64947044733902 -1.649468538463527 0  -1.49943741673405 -1.786968102025685 0  -1.337984451246745 -1.910839681749345 0  -1.166355823433099 -2.020196988993212 0  -0.9858587285014172 -2.11415832918033 0  -0.7978322693032203 -2.192026902686298 0  -0.603752014924214 -2.253236607594971 0  -0.4050693893150121 -2.297281358515724 0  -0.2033108117507666 -2.323844515204188 0  6.979813551922943e-07 -2.332707209002766 0  0.2033087844953691 -2.32384663187141 0  0.40506889353095 -2.297269725547315 0  0.6037522509115416 -2.253235355316502 0  0.7978336911231989 -2.192025886759351 0  0.9858510356940756 -2.11416382177031 0  1.166354506580751 -2.020181826432723 0  1.337990198112208 -1.910853734739685 0  1.499441610160269 -1.786965140316626 0  1.649470927038331 -1.649467944897122 0  1.786965360775924 -1.499441839686688 0  1.910835279505596 -1.337981599170175 0  2.020176129478256 -1.166345315468674 0  2.114144690627174 -0.985837116994381 0  2.192017277117196 -0.79782801772913 0  2.253211246067027 -0.6037461707228572 0  2.297257196339388 -0.405068948003681 0  2.323819699117526 -0.2033079044363361 0  0.0008724031522125726 0.1767718509980143 0  -0.06996115153296312 -1.606068972830597 0  0.6538805558267172 -1.472459940229006 0  -0.8679236837289908 -1.367262912209465 0  1.220186853488697 -1.07478719298055 0  -1.37503742606626 -0.8854999560092375 0  1.568692619604225 -0.5103762913540492 0  -1.6456806027096 -0.2367876668392615 0  1.668836446578371 0.1953831541921339 0  -1.63549832201739 0.4029273098408409 0  1.491623442900589 0.812924973766151 0  -1.340890838742068 1.057017373882862 0  1.062343496721223 1.352240256786819 0  -0.8090671291759888 1.522051330467138 0  0.2303138127074492 1.713467229194046 0  -0.3168015273774142 1.767497635605008 0  -0.5135612978654102 0.07404963531676947 0  0.5200013306254405 0.1464425635825825 0  -0.3142631045405694 0.5466534435385706 0  0.2448402645977766 -0.2541695090364231 0  0.2591909881040411 0.58220132173744 0  -0.5556919986631844 -1.756035476027985 0  0.6113552873544355 1.444972099041649 0  -0.2370530954920744 -0.287870981399279 0  0.4117377174399379 -1.851122531336375 0  1.163024740476824 -1.50928100494106 0  -0.4087646098968811 -1.311724512201525 0  -1.29918556735164 -1.412327270902568 0  -1.76515723812317 -0.6565172155294281 0  0.2495303259996371 -1.285137944199989 0  1.711804063704689 -0.892746274200277 0  1.912528757007168 -0.2628975658470047 0  -1.714246975396589 0.8704926672795269 0  -1.933907092591036 0.06930363633176408 0  1.85663490631346 0.5665501046022489 0  0.7777598595992818 -1.074256922770117 0  0.8973101031169326 1.72657195830209 0  -0.9390822212144584 -0.9564667418049176 0  1.451272767715537 1.306893050119039 0  -1.201241472666638 1.541724032663637 0  -1.286353300100368 -0.4874309120975122 0  1.166709610009253 -0.6732677012615985 0  1.400051052676512 -0.1429962272064156 0  -0.2333637676306515 -1.952539251585258 0  -1.402732060640135 0.06412895469730813 0  0.776150233854368 -1.822408808158007 0  -1.377940987354162 0.6718969038272462 0  -0.9291206285073861 -1.739403475111329 0  1.357284188800525 0.4050380090454226 0  -0.06905576193331522 1.48610258913022 0  -0.4505357751455616 1.414440911900594 0  -0.9479583885436641 1.143410344397221 0  1.126065329659159 0.9526259784159776 0  1.474113819642445 -1.338453158626057 0  1.997555819930241 0.07339345037868113 0  -1.720158360112205 -0.9944161793096541 0  -0.07771469192035052 -1.217266392757211 0  1.906413018139815 -0.6176497816975348 0  -1.926768836939101 0.591394042642933 0  -0.04165164046783649 0.7831943763767115 0  -0.666844861552942 1.861968036424655 0  -1.993500707126507 -0.2716007718248548 0  -0.6328156180303832 0.3836353953173228 0  0.5592646758674404 1.889096406316801 0  0.5718000505866772 -0.2049435368577069 0  -0.01954419086595318 1.978802702310856 0  -0.6172978927554165 -1.066691871038218 0  1.712419644861764 1.07250219995935 0  -1.480152381714234 1.366947943652636 0  0.1049542544627319 -2.002169625698607 0  0.5930493211367293 0.468157038199425 0  -1.112766897679138 0.8324702814034534 0  0.7943086513302949 1.17702059285525 0  -0.5789259654250489 -0.2486198268709996 0  1.283695650919347 1.573030430186634 0  -0.9907137434582624 1.773875840978006 0  0.01590493527541054 -0.4813026573260183 0  0.2945705781247885 1.400220632943765 0  -1.303959373075638 0.3568246421549743 0  -1.03132405759602 -0.6777786241078997 0  -1.577261537614623 -1.269642747060498 0  1.200703289834399 -0.3866658367868511 0  1.192103187496219 0.6537905290767334 0  0.4665132881528664 -1.091942659966283 0  0.2812674988989679 2.010738389263222 0  -1.341215269557658 -0.2148162283555688 0  0.9847213539050903 -0.8858861334044779 0  0.232561460765252 -1.596496113741991 0  -1.095607348512837 -1.201755345072522 0  -0.02039984849192293 0.4627185820096129 0  0.9134932292117549 -1.340481310635623 0  1.382707415710877 0.1289370197036118 0  -0.6924168087248381 1.264244443290689 0  1.453962694899757 -0.7565146158875037 0  -1.684726953592195 1.164047480347734 0  -0.2925135721687674 2.047746030181466 0  -0.007404447389241212 -0.107724996464758 0  -0.2428892729546069 0.03232515980594663 0  -0.2458128148326033 0.295953042054807 0  1.695061307434264 -0.08105890817080035 0  -0.7654696848669038 0.08097236566273193 0  0.7634376034441186 0.1979205318594237 0  0.2262834953501248 0.8361660231440357 0  1.755285546079776 0.8081860858644125 0  -2.029346578375186 0.3355564970604076 0  -0.3153757259920746 0.8032995959568483 0  -0.5569796156434588 0.6384964128571778 0  2.026142762423021 0.3516606420020914 0  0.39902318015
[...]
<PointData  Vectors="f_2929-0"> 
<DataArray  type="Float64"  Name="f_2929-0"  NumberOfComponents="3" format="ascii">-5.7193955336700408e-03 -7.7199582146986884e-02 0.0000000000000000e+00  1.1824460582860576e-02 -8.7629542729479093e-02 0.0000000000000000e+00  3.2203365612062738e-02 -9.6905136504338393e-02 0.0000000000000000e+00  5.5503509846764248e-02 -1.0460733647114819e-01 0.0000000000000000e+00  8.0825965852838022e-02 -1.0932052797205960e-01 0.0000000000000000e+00  1.0622570168984337e-01 -1.0834219135702168e-01 0.0000000000000000e+00  1.3016882990931383e-01 -1.0196128407791419e-01 0.0000000000000000e+00  1.4663313618619331e-01 -8.7201332477030380e-02 0.0000000000000000e+00  1.4874438509006033e-01 -6.3284884392712557e-02 0.0000000000000000e+00  1.3937517809466132e-01 -3.7440863956359295e-02 0.0000000000000000e+00  1.2561443793311891e-01 -1.4952532986525062e-02 0.0000000000000000e+00  1.0524542820733360e-01 5.1389619526267223e-03 0.0000000000000000e+00  8.2150552004971705e-02 2.1039944798838126e-02 0.0000000000000000e+00  5.5790441772986574e-02 3.3010266397714899e-02 0.0000000000000000e+00  2.6498716650353388e-02 3.9734229450253934e-02 0.0000000000000000e+00  -3.9909202824562340e-03 4.1276709985662650e-02 0.0000000000000000e+00  -3.4670820048564574e-02 3.7925982969740618e-02 0.0000000000000000e+00  -6.3776255145942387e-02 2.9029885205534348e-02 0.0000000000000000e+00  -8.9116977765314187e-02 1.5685753072329167e-02 0.0000000000000000e+00  -1.1061477331379334e-01 -1.4711275753984054e-03 0.0000000000000000e+00  -1.2819023894989004e-01 -2.2546799547889199e-02 0.0000000000000000e+00  -1.4143335774846844e-01 -4.6802256820696962e-02 0.0000000000000000e+00  -1.4799122994698358e-01 -7.2348327507285884e-02 0.0000000000000000e+00  -1.4109947929311914e-01 -9.4118531747445722e-02 0.0000000000000000e+00  -1.2280244629253195e-01 -1.0770635820004593e-01 0.0000000000000000e+00  -9.9393309729566892e-02 -1.1313549893856123e-01 0.0000000000000000e+00  -7.3076464323564946e-02 -1.1160835441823301e-01 0.0000000000000000e+00  -4.7647099049191718e-02 -1.0459452279105647e-01 0.0000000000000000e+00  -2.5747876143678447e-02 -9.6987642759572043e-02 0.0000000000000000e+00  -5.9638365780650291e-03 -8.6421494267682142e-02 0.0000000000000000e+00  1.0918470975018876e-02 -7.4689211568253921e-02 0.0000000000000000e+00  2.4990305487498303e-02 -6.2479899635856054e-02 0.0000000000000000e+00  3.6825719233958554e-02 -5.0005116610332696e-02 0.0000000000000000e+00  4.5884241592329109e-02 -3.5389191082045864e-02 0.0000000000000000e+00  5.1911371300900455e-02 -1.9994351423843457e-02 0.0000000000000000e+00  5.6808001844037358e-02 -7.5999290408922168e-03 0.0000000000000000e+00  5.7374240614152423e-02 7.5953126807532098e-03 0.0000000000000000e+00  5.6144649668774589e-02 2.0976135539886278e-02 0.0000000000000000e+00  5.2888006565093695e-02 3.3114479516917504e-02 0.0000000000000000e+00  4.6924651538003258e-02 4.4474888994597686e-02 0.0000000000000000e+00  3.8446858961844826e-02 5.4419368106668010e-02 0.0000000000000000e+00  3.1031329042799049e-02 6.1295932488160315e-02 0.0000000000000000e+00  1.9296984257983978e-02 6.7192111119162748e-02 0.0000000000000000e+00  8.9563310632190946e-03 7.0267160619955166e-02 0.0000000000000000e+00  -2.3948318175871504e-03 7.1073643178966570e-02 0.0000000000000000e+00  -1.2757900559610581e-02 6.9653459441511092e-02 0.0000000000000000e+00  -2.4891017121241796e-02 6.5533439287017048e-02 0.0000000000000000e+00  -3.4843016226762051e-02 5.9309269767249283e-02 0.0000000000000000e+00  -4.1927509688375060e-02 5.1902623942357014e-02 0.0000000000000000e+00  -4.9788059206309479e-02 4.1416064890179467e-02 0.0000000000000000e+00  -5.4715376958508206e-02 2.9907458310715562e-02 0.0000000000000000e+00  -5.6726637286520595e-02 1.8034306205845122e-02 0.0000000000000000e+00  -5.6785726511008397e-02 5.0734939432872800e-03 0.0000000000000000e+00  -5.5078703043102882e-02 -9.4631618213232432e-03 0.0000000000000000e+00  -5.0632367248077924e-02 -2.4271593547974517e-02 0.0000000000000000e+00  -4.3245537343347698e-02 -3.8050087283647969e-02 0.0000000000000000e+00  -3.3330248263278281e-02 -5.1133133646927675e-02 0.0000000000000000e+00  -2.0869552353291708e-02 -6.6203661960563889e-02 0.0000000000000000e+00  1.3440793317556132e-01 2.0626097799610589e-05 0.0000000000000000e+00  1.3389758210485303e-01 1.1704317600745417e-02 0.0000000000000000e+00  1.3237870885180616e-01 2.3308618798201092e-02 0.0000000000000000e+00  1.2981073489917638e-01 3.4773693826348047e-02 0.0000000000000000e+00  1.2631226534002662e-01 4.5960245632406312e-02 0.0000000000000000e+00  1.2179144941659649e-01 5.6786768117282685e-02 0.0000000000000000e+00  1.1640129704436458e-01 6.7220032891332479e-02 0.0000000000000000e+00  1.1008962484088608e-01 7.7081616454309984e-02 0.0000000000000000e+00  1.0296871352126617e-01 8.6407915582005529e-02 0.0000000000000000e+00  9.5044441322027023e-02 9.5022873076855863e-02 0.0000000000000000e+00  8.6396874654115982e-02 1.0295053138838767e-01 0.0000000000000000e+00  7.7124215997719875e-02 1.1010292547859046e-01 0.0000000000000000e+00  6.7206013302753831e-02 1.1638241634813147e-01 0.0000000000000000e+00  5.6798653204815482e-02 1.2180285993624100e-01 0.0000000000000000e+00  4.5973192802887385e-02 1.2628980677560683e-01 0.0000000000000000e+00  3.4785107506554454e-02 1.2981965568796322e-01 0.0000000000000000e+00  2.3336796744735440e-02 1.3236074616027477e-01 0.0000000000000000e+00  1.1731252917058730e-02 1.3392310321347339e-01 0.0000000000000000e+00  3.2243272788603566e-06 1.3439925467637687e-01 0.0000000000000000e+00  -1.1721425550625027e-02 1.3389262927750825e-01 0.0000000000000000e+00  -2.3370757674370749e-02 1.3238797673016245e-01 0.0000000000000000e+00  -3.4781784102674296e-02 1.2985675587062023e-01 0.0000000000000000e+00  -4.5967648601135218e-02 1.2629273802563201e-01 0.0000000000000000e+00  -5.6805144893489659e-02 1.2180819243233185e-01 0.0000000000000000e+00  -6.7218384416557586e-02 1.1641879369567168e-01 0.0000000000000000e+00  -7.7089462549565946e-02 1.1009259975941403e-01 0.0000000000000000e+00  -8.6394430350564641e-02 1.0294629229614745e-01 0.0000000000000000e+00  -9.5035684793428971e-02 9.5027346062068613e-02 0.0000000000000000e+00  -1.0298791722799640e-01 8.6391237716912539e-02 0.0000000000000000e+00  -1.1010727313294583e-01 7.7107176981956016e-02 0.0000000000000000e+00  -1.1638779082988382e-01 6.7191715318081047e-02 0.0000000000000000e+00  -1.2179515107475242e-01 5.6785096303549179e-02 0.0000000000000000e+00  -1.2632041738399064e-01 4.5940702148334199e-02 0.0000000000000000e+00  -1.2983402297727920e-01 3.4780846717327493e-02 0.0000000000000000e+00  -1.3236747166960211e-01 2.3352797594792297e-02 0.0000000000000000e+00  -1.3387354572963184e-01 1.1712291292255168e-02 0.0000000000000000e+00  -1.3440464847758155e-01 -4.4223343354194826e-06 0.0000000000000000e+00  -1.3389940037770146e-01 -1.1709484279165025e-02 0.0000000000000000e+00  -1.3236748116827057e-01 -2.3338030130881950e-02 0.0000000000000000e+00  -1.2979557943192357e-01 -3.4778998746077094e-02 0.0000000000000000e+00  -1.2629747794297444e-01 -4.5983689078532765e-02 0.0000000000000000e+00  -1.2182197361626330e-01 -5.6791984035714928e-02 0.0000000000000000e+00  -1.1641371304954783e-01 -6.7188753737648252e-02 0.0000000000000000e+00  -1.1008493413905597e-01 -7.7078236866219882e-02 0.0000000000000000e+00  -1.0297068978269985e-01 -8.6403970359028845e-02 0.0000000000000000e+00  -9.5029222763140839e-02 -9.5024891015134408e-02 0.0000000000000000e+00  -8.6394123837913117e-02 -1.0297885420649226e-01 0.0000000000000000e+00  -7.7086098775864087e-02 -1.1008802281826646e-01 0.0000000000000000e+00  -6.7199688410698191e-02 -1.1642360992654992e-01 0.0000000000000000e+00  -5.6834227229581862e-02 -1.2182072939152029e-01 0.0000000000000000e+00  -4.5966591453604065e-02 -1.2629164739356277e-01 0.0000000000000000e+00  -3.4786877704266396e-02 -1.2985109627912222e-01 0.0000000000000000e+00  -2.3339763031892911e-02 -1.3238418690301387e-01 0.0000000000000000e+00  -1.1717843931896723e-02 -1.3391698719937184e-01 0.0000000000000000e+00  1.8552734081786305e-07 -1.3439883882997636e-01 0.0000000000000000e+00  1.1712954030610775e-02 -1.3392171482789555e-01 0.0000000000000000e+00  2.3337132885413805e-02 -1.3235993035982277e-01 0.0000000000000000e+00  3.4791440979935966e-02 -1.2984734375691903e-01 0.0000000000000000e+00  4.5967805921082121e-02 -1.2629013712071435e-01 0.0000000000000000e+00  5.6814423127642420e-02 -1.2183401498109941e-01 0.0000000000000000e+00  6.7201015511457282e-02 -1.1638916738880567e-01 0.0000000000000000e+00  7.7098037894848384e-02 -1.1011775891753027e-01 0.0000000000000000e+00  8.6403651691553132e-02 -1.0297179303086756e-01 0.0000000000000000e+00  9.5029225744356793e-02 -9.5024404127452514e-02 0.0000000000000000e+00  1.0297306123440350e-01 -8.6403773724238783e-02 0.0000000000000000e+00  1.1008030193921094e-01 -7.7077573677871866e-02 0.0000000000000000e+00  1.1637590086759302e-01 -6.7183800602035160e-02 0.0000000000000000e+00  1.2179390565190122e-01 -5.6784785990837409e-02 0.0000000000000000e+00  1.2627213532778933e-01 -4.5957418910809976e-02 0.0000000000000000e+00  1.2979777599844949e-01 -3.4775160399204752e-02 0.0000000000000000e+00  1.3233367698701234e-01 -2.3338148333628277e-02 0.0000000000000000e+00  1.3386519099668226e-01 -1.1708496709575904e-02 0.0000000000000000e+00  -8.6097828658155827e-04 1.3267710268059438e-01 0.0000000000000000e+00  -2.9304834278080024e-03 -8.0492428306205357e-02 0.0000000000000000e+00  2.7199147851470679e-02 -7.6422697425311784e-02 0.0000000000000000e+00  -3.6190889347750756e-02 -7.0811597508677007e-02 0.0000000000000000e+00  4.5008990770823855e-02 -5.4767373033778113e-02 0.0000000000000000e+00  -4.4904804548235248e-02 -5.0061949944424797e-02 0.0000000000000000e+00  4.9814540890773029e-02 -5.0416683455102196e-02 0.0000000000000000e+00  -5.8935048688332131e-02 -5.1567036788687529e-02 0.0000000000000000e+00  7.8630442296305891e-02 -4.2690945867403941e-02 0.0000000000000000e+00  -8.8326949372493843e-02 -3.5479767885502916e-02 0.0000000000000000e+00  1.0059271261908276e-01 -8.0994039007025957e-03 0.0000000000000000e+00  -1.0254970807205374e-01 1.4977068857903614e-02 0.0000000000000000e+00  9.2771428554703300e-02 4.7852328654065496e-02 0.0000000000000000e+00  -7.5431889169827071e-02 7.1499185643369309e-02 0.0000000000000000e+00  2.3846115060192092e-02 9.9640996114995162e-02 0.0000000000000000e+00  -3.0396752579183860e-02 1.0411868098747583e-01 0.0000000000000000e+00  -3.0909802950767829e-02 5.4424227276820912e-02 0.0000000000000000e+00  3.3814392440013198e-02 5.3995681854417096e-02 0.0000000000000000e+00  -3.1151128749939420e-02 8.6396017361915919e-02 0.0000000000000000e+00  -1.2336983539552874e-02 1.2292426189640052e-01 0.0000000000000000e+00  2.4913168653608611e-02 9.1492871660641892e-02 0.0000000000000000e+00  -3.5410110017958095e-02 -1.0153796884677153e-01 0.0000000000000000e+00  6.0787006206044977e-02 6.6701003872550110e-02 0.0000000000000000e+00  1.3383920863433818e-02 1.2263989050016429e-01 0.0000000000000000e+00  2.6952659335808912e-02 -1.1023735512259804e-01 0.0000000000000000e+00  7.4328923021866958e-02 -8.4328659993448477e-02 0.0000000000000000e+00  5.1848591236326024e-03 -5.4166896644890730e-02 0.0000000000000000e+00  -8.1222642171087323e-02 -7.7938591044128452e-02 0.0000000000000000e+00  -9.0301114755567236e-02 -4.7986567220882785e-02 0.0000000000000000e+00  -9.6000203361372282e-03 -4.4747582743990794e-02 0.0000000000000000e+00  9.4775500459923959e-02 -5.3422126127880665e-02 0.0000000000000000e+00  1.0422794427286168e-01 -3.7566777682093468e-02 0.0000000000000000e+00  -1.1892957864361704e-01 1.3606752575951533e-02 0.0000000000000000e+00  -1.1081594146016666e-01 -2.7956858294517595e-02 0.0000000000000000e+00  1.1859708906256755e-01 -3.7199057056996223e-03 0.0000000000000000e+00  -1.4820205348610787e-02 -6.0342472637526651e-02 0.0000000000000000e+00  7.7798515655297232e-02 9.3740259559027261e-02 0.0000000000000000e+00  1.3950558315489853e-02 -5.7942687382028103e-02 0.0000000000000000e+00  1.1174271133996168e-01 5.1086020772935739e-02 0.0000000000000000e+00  -9.7951361943011184e-02 7.4169809265894351e-02 0.0000000000000000e+00  1.3759759690723619e-02 -6.2646903306216334e-02 0.0000000000000000e+00  -2.3718694473859304e-02 -5.5904132584086143e-02 0.0000000000000000e+00  1.4479760310049291e-02 -6.8043814465104518e-02 0.0000000000000000e+00  -1.6186693783128807e-02 -1.1872171776555762e-01 0.0000000000000000e+00  -2.8395223212347151e-02 -6.8374666201595991e-02 0.0000000000000000e+00  5.2669577596957777e-02 -1.0903357031669166e-01 0.0000000000000000e+00  -8.2583223306415571e-02 -2.8947752821382167e-02 0.0000000000000000e+00  -6.2456051378586383e-02 -1.0228916957608954e-01 0.0000000000000000e+00  5.5202555838240033e-02 -5.3964889029746180e-02 0.0000000000000000e+00  -6.3478976674345433e-03 8.1269398752485039e-02 0.0000000000000000e+00  -4.5365238262027284e-02 6.9409048848124447e-02 0.0000000000000000e+00  -8.0453542120421287e-02 2.3963567050665786e-02 0.0000000000000000e+00  8.4093053530876330e-02 -2.6253304959788131e-03 0.0000000000000000e+00  9.2831088070075118e-02 -7.4191399585507314e-02 0.0000000000000000e+00  1.1810808040193570e-01 -2.1794450606212913e-02 0.0000000000000000e+00  -1.0043530269679020e-01 -5.7805565483735895e-02 0.0000000000000000e+00  7.8327308878700149e-03 -3.1140986899309969e-02 0.0000000000000000e+00  1.0833256953297350e-01 -4.5187446128189930e-02 0.0000000000000000e+00  -1.2474901563157315e-01 4.1125961071791593e-03 0.0000000000000000e+00  -4.3681431949179530e-03 9.0916727856771795e-02 0.0000000000000000e+00  -5.7611863362697843e-02 1.0926580779147685e-01 0.0000000000000000e+00  -1.1427775913649962e-01 -3.4542718462616709e-02 0.0000000000000000e+00  -4.5451111476221856e-02 3.0318527098358739e-02 0.0000000000000000e+00  4.9690185865948672e-02 1.1233987226031135e-01 0.0000000000000000e+00  -1.2505609597781424e-02 1.3217521250440761e-02 0.0000000000000000e+00  -1.2586695488269069e-03 1.2283291878129866e-01 0.0000000000000000e+00  3.6493003884453985e-02 -5.5181989805129651e-02 0.0000000000000000e+00  1.2126763842716080e-01 3.6574127741624780e-02 0.0000000000000000e+00  -1.1169425712831106e-01 6.0138902373888248e-02 0.0000000000000000e+00  6.8771154940430249e-03 -1.2273764083732588e-01 0.0000000000000000e+00  4.5525115809634080e-02 3.9367070731313285e-02 0.0000000000000000e+00  -7.6726206165586355e-02 -1.3565672596516283e-02 0.0000000000000000e+00  7.1882046176336589e-02 3.2884531853355721e-02 0.0000000000000000e+00  2.1423448719627411e-02 6.1228929551926407e-03 0.0000000000000000e+00  1.0027753375683131e-01 7.8974817818789025e-02 0.0000000000000000e+00  -8.0235552384649744e-02 9.8877640721608318e-02 0.0000000000000000e+00  -4.2697828082441276e-03 1.2941769782737367e-01 0.0000000000000000e+00  3.1646061747693265e-02 7.2107411241171218e-02 0.0000000000000000e+00  -4.7836454565688594e-02 -5.9177665693704459e-02 0.0000000000000000e+00  5.5610462184878265e-02 -6.3914538389369405e-02 0.0000000000000000e+00  -9.8302776127825231e-02 -7.1139506525914317e-02 0.0000000000000000e+00  -3.4808606377911132e-02 -7.6483923882896251e-02 0.0000000000000000e+00  6.6201015819351422e-02 -3.4547955959893850e-02 0.0000000000000000e+00  -3.9868669796393578e-02 -4.6384323794326006e-02 0.0000000000000000e+00  2.4413043217493071e-02 1.2403287074884635e-01 0.0000000000000000e+00  1.3298316568567492e-03 -7.2327479643348833e-02 0.0000000000000000e+00  -2.0160957926076861e-02 -5.6377530759371700e-02 0.0000000000000000e+00  9.1853839622255753e-03 -8.0887127554043647e-02 0.0000000000000000e+00  -4.3830095937835420e-02 -6.1676561798118604e-02 0.0000000000000000e+00  -2.4538832124190038e-03 1.1314607914307739e-01 0.0000000000000000e+00  3.8916132966168325e-02 -6.9622117567285535e-02 0.0000000000000000e+00  3.1195868393915024e-02 -6.6990072017239360e-02 0.0000000000000000e+00  -6.5256886669265712e-02 4.7175631905401728e-02 0.0000000000000000e+00  4.5017919580936455e-02 -4.8966068152904010e-02 0.0000000000000000e+00  -1.2003288286209920e-01 4.5674816125075776e-02 0.0000000000000000e+00  -2.3733475005925243e-02 1.2634801725546166e-01 0.0000000000000000e+00  -1.7156158456996340e-03 1.4442866138056037e-01 0.0000000000000000e+00  -1.7817874917434581e-02 1.1986418734189670e-01 0.0000000000000000e+00  -2.4460298928355738e-02 1.0828004936973748e-01 0.0000000000000000e+00  7.1263011827548572e-02 -4.7183651164788953e-02 0.0000000000000000e+00  -2.4374300375394498e-02 -2.6556444581628244e-02 0.0000000000000000e+00  3.3566994634370531e-02 -1.5967608216697595e-02 0.0000000000000000e+00  2.2460820501187178e-02 8.0337759881964940e-02 0.0000000000000000e+00  1.1923675923006276e-01 1.0264039308957069e-02 0.0000000000000000e+00  -1.2611029240116808e-01 -5.9257771751076481e-03 0.0000000000000000e+00  -3.0700097592245186e-02 7.3823365589647402e-02 0.0000000000000000e+00  -4.9142000223699682e-02 4.9004885261219926e-02 0.0000000000000000e+00  1.2590829442995921e-01 -4.3545206333196760e-03 0.0000000000000000e+00  -7.5104197319113414e-02 6.1564103477759015e-02 0.0000000000000000e+00  8.0244741940075581e-02 -5.7563570341667161e-02 0.0000000000000000e+00  2.4521259804585721e-02 1.0589272728208136e-01 0.0000000000000000e+00  1.5730022560538740e-02 1.1881641653212908e-01 0.0000000000000000e+00  4.2556579809630492e-02 5.7930448672871511e-02 0.0000000000000000e+00  -6.9407599943840256e-02 -4.9232291254432063e-02 0.0000000000000000e+00  7.1071876025691108e-02 -1.0475142091044093e-01 0.0000000000000000e+00  8.8008783114044170e-02 -3.3371228046539199e-02 0.0000000000000000e+00  -1.7128994095856519e-02 -9.3993059677245125e-02 0.0000000000000000e+00  3.9227498662786763e-02 -2.6917535518911281e-02 0.0000000000000000e+00  -5.1185997714839004e-02 -1.1713917353699863e-01 0.0000000000000000e+00  -4.0625370207212921e-02 -8.6091656144942769e-02 0.0000000000000000e+00  -3.3768310169931197e-02 -1.2318889951059341e-01 0.0000000000000000e+00  -8.0002140193150634e-02 -9.7665912485767406e-02 0.0000000000000000e+00  6.2225589017630360e-02 8.9713821305950778e-02 0.0000000000000000e+00  -5.2370976411762200e-02 8.9649627451065805e-02 0.0000000000000000e+00  -1.0217416849861886e-01 4.2762032350929492e-02 0.0000000000000000e+00  -6.1574377043859367e-03 1.0253802706371612e-01 0.0000000000000000e+00  1.0768493433148307e-01 -6.5492455330925362e-02 0.0000000000000000e+00  5.3936086029703956e-02 -8.9006877701344675e-02 0.0000000000000000e+00  -1.1916258722432316e-01 -4.3973151662227511e-02 0.0000000000000000e+00  1.1008274748130234e-01 2.0374103898089579e-02 0.0000000000000000e+00  -4.3046763600426592e-02 -4.9822966511778033e-02 0.0000000000000000e+00  -6.9955071230097018e-02 -6.1389989708478684e-02 0.0000000000000000e+00  6.3747478341976527e-02 5.5486973832953736e-02 0.0000000000000000e+00  -5.7747908699636634e-02 -4.2552473761296006e-02 0.0000000000000000e+00  6.1949217568286426e-02 1.1512724250607938e-01 0.0000000000000000e+00  1.0011714178443983e-01 2.7258825629201292e-02 0.0000000000000000e+00  4.2904669825722573e-02 -1.2283130008289460e-01 0.0000000000000000e+00  -1.1426152843040592e-01 -5.2915305113744204e-02 0.0000000000000000e+00  -1.0859910898829628e-01 -1.1875236021693759e-02 0.0000000000000000e+00  -8.9537728547813888e-02 5.2671328603363966e-02 0.0000000000000000e+00  1.1920103440929624e-02 -1.3946474354726287e-02 0.0000000000000000e+00  -3.8622140246864403e-02 -5.3453695814329072e-02 0.0000000000000000e+00  4.7590002237298999e-02 9.0926966146825647e-02 0.0000000000000000e+00  4.7360293527256701e-02 5.4709421971293519e-02 0.0000000000000000e+00  7.8755857753848732e-02 5.6641542143772976e-02 0.0000000000000000e+00  -1.0109451482298284e-01 -3.0084963907636961e-02 0.0000000000000000e+00  4.7738653511257646e-02 -5.3388330645889930e-02 0.0000000000000000e+00  -1.8790617732899050e-02 -7.8089005401573000e-02 0.0000000000000000e+00  -1.3996151799117113e-02 -6.6173166386938723e-02 0.0000000000000000e+00  -5.0306144236228543e-04 -5.8979937442492622e-02 0.0000000