<?xml version="1.0"?>
<VTKFile type="UnstructuredGrid"  version="0.1"  >
<UnstructuredGrid>
<Piece  NumberOfPoints="1537" NumberOfCells="2944">
<Points>
<DataArray  type="Float64"  NumberOfComponents="3"  format="ascii">-0.9895862455664044 0.3535952169952148 0  -0.9896541990062109 0.2461288430288266 0  -0.9777420016509332 0.1389809305557485 0  -0.9541106588590067 0.03376925541810399 0  -0.9191535386219624 -0.06807495372959661 0  -0.873211360276578 -0.1656284894937251 0  -0.8168931858445807 -0.2575122666093471 0  -0.7508325781100703 -0.3426935457922515 0  -0.6763346533038157 -0.4198691895900078 0  -0.5947798381567401 -0.4876775524897601 0  -0.5076549187955457 -0.5457887944970619 0  -0.415341886282833 -0.594202193052435 0  -0.3188543099433043 -0.6327409311093761 0  -0.2191663794983337 -0.6608992441162633 0  -0.1171812797755547 -0.6785076753671925 0  -0.01539372104489603 -0.6853525740165171 0  0.08481444550456135 -0.6811105678950752 0  0.186821808039164 -0.6655678024324149 0  0.2865007915019599 -0.639550420247804 0  0.3835511766043934 -0.6031632627243523 0  0.4764662558702005 -0.5569706941867539 0  0.5645373071934903 -0.5011592353672556 0  0.6468814214631329 -0.4358790132237812 0  0.7228589989106281 -0.3612139536363906 0  0.790980350998537 -0.2779976950092475 0  0.8497544357329327 -0.1876991995648972 0  0.8984008579488751 -0.09161711407376769 0  0.9362331946012881 0.009333260591224694 0  0.9627766339811523 0.1136441342805115 0  0.9776842112252724 0.2202984352719632 0  0.9807385815817782 0.327759369255586 0  0.9719114011949765 0.4348803510177309 0  0.9512809066657903 0.5403141679706581 0  0.9192320622708579 0.6428150910878928 0  0.8760215255927479 0.7410583038650808 0  0.8225169100075962 0.8339695260672146 0  0.7590744376996961 0.9204547189030969 0  0.6865291334522032 0.9993952120960798 0  0.6056555429506749 1.070038382374993 0  0.5175468535339817 1.131524096321695 0  0.4234270428469781 1.18291915639157 0  0.3241417811674031 1.223891101615741 0  0.2210878570853207 1.253878252081432 0  0.1154047053138057 1.272615050055134 0  0.008243971006381638 1.279756755287468 0  -0.09923878358100048 1.275198695919184 0  -0.205461514918184 1.2590855534411 0  -0.3092549653097942 1.231551840291536 0  -0.4092392709717169 1.193031361432156 0  -0.5046359298630658 1.144012883349138 0  -0.5942049622959241 1.084878348725848 0  -0.6767523389227582 1.016479075621102 0  -0.7514318772805842 0.9395756715026143 0  -0.8173498910000073 0.8548214210876312 0  -0.8736420417419336 0.7634174919125181 0  -0.9194035758522743 0.666466715593077 0  -0.9543347073468214 0.5649730353641462 0  -0.9777700227752368 0.4602308221956949 0  -2.771392054472292 0.1001183485295199 0  -2.771391757267801 -0.100119134425522 0  -2.756943213702332 -0.2998350872294225 0  -2.728119448186115 -0.4979950262708885 0  -2.685086051788114 -0.6934972937140299 0  -2.628011179513489 -0.8855414607445508 0  -2.557306911828419 -1.072756013651581 0  -2.473201585328598 -1.254539516759229 0  -2.37620830582967 -1.429776369153636 0  -2.266879407505229 -1.59746469639621 0  -2.145691671545606 -1.756884414910446 0  -2.013364161228084 -1.907090064345059 0  -1.870465314134501 -2.04742933325586 0  -1.717850306042792 -2.177061658781186 0  -1.556233809889965 -2.295378310928305 0  -1.386650381299626 -2.401629907865949 0  -1.209683813267417 -2.495448277370196 0  -1.02641931518738 -2.576255200355539 0  -0.8379015343304788 -2.643587770841232 0  -0.6449561307092241 -2.697159775224153 0  -0.448647862914663 -2.73666770818406 0  -0.2500618912422041 -2.761900955577328 0  -0.0500090664063118 -2.77274677031255 0  0.1500799793760462 -2.769133708696954 0  0.3496190548306016 -2.751071073296286 0  0.5471029751321849 -2.718695360744735 0  0.7419070935003922 -2.67211188977516 0  0.9327868291405138 -2.611609806278019 0  1.118803073377801 -2.537494573951836 0  1.298987398057754 -2.450149433322443 0  1.472450777446367 -2.35000304196627 0  1.6380880984333 -2.237698114687929 0  1.795368509013388 -2.113593921916423 0  1.943161003121806 -1.978575676210893 0  2.080874438338183 -1.833193270549762 0  2.207693604432204 -1.678308025226839 0  2.323065865294511 -1.514586277905755 0  2.426326562410749 -1.342969105627526 0  2.516884958304228 -1.164441918915032 0  2.594350528625808 -0.9797870388715811 0  2.658286258968851 -0.7900326261882857 0  2.708364902413665 -0.596149341864996 0  2.744311939816302 -0.3992221133130163 0  2.765972307902764 -0.2000588662455831 0  2.773199129006826 -2.722883719647713e-07 0  2.765972399011734 0.200058749157069 0  2.744314007919864 0.3991714235244694 0  2.708349102430666 0.596212784424011 0  2.658301340232048 0.7899738361130719 0  2.594343099734408 0.9797848918757697 0  2.516865279933158 1.164480849308925 0  2.426306686039935 1.343008207924899 0  2.323070094859918 1.514590327537075 0  2.20772565794171 1.678268414216747 0  2.080865954860586 1.833202957075546 0  1.943200581143864 1.978534682917994 0  1.795327514786821 2.113621834238899 0  1.638131926674012 2.237659578964875 0  1.47235053795092 2.350065982049581 0  1.299040867959996 2.450126352613202 0  1.118751913526342 2.53752253282219 0  0.9328448323878684 2.611594802701003 0  0.7419075211328157 2.672111902802317 0  0.5471031611782058 2.718695616314193 0  0.3496189346562161 2.751071279015127 0  0.1501376728822787 2.769125803417487 0  -0.05012667408766121 2.772745043033845 0  -0.2499543137962399 2.761910481800772 0  -0.4487027015651118 2.736657531312219 0  -0.6449493354506822 2.697161332761559 0  -0.8379026571370511 2.643587974282931 0  -1.026420297587765 2.576255044524743 0  -1.209738365636963 2.495427756163635 0  -1.386548242731504 2.40168918612616 0  -1.556279113248752 2.295341926398761 0  -1.717850777971597 2.177061376135611 0  -1.870510763333265 2.047392353905982 0  -2.013288523014014 1.907169038059801 0  -2.145690815368529 1.756874887542152 0  -2.266902512540883 1.597429534234294 0  -2.376236009658801 1.429733356188451 0  -2.473184210914189 1.254586302958947 0  -2.557281364515048 1.072808839166404 0  -2.628048228472429 0.8854302750877555 0  -2.685058769842843 0.693602124717702 0  -2.728128081604753 0.4979393920399178 0  -2.756941998919772 0.2998419126920363 0  0.08054093453753039 -1.726532643804356 0  -0.928484010215745 -1.484570755913826 0  1.078943108262865 -1.384249233094192 0  -0.006203411345020185 0.2992352830146012 0  -1.642652946742581 -0.7614758997952171 0  1.692946419023056 -0.6491708741195528 0  -1.877427313202694 0.133973531062524 0  1.866750594415972 0.256620768651726 0  -1.702344880905466 0.944156607705842 0  1.641939458708785 1.048861347274768 0  -1.181424540083735 1.611494148832446 0  1.12275310597599 1.653450632142816 0  -0.4488167356000867 1.971139852293034 0  0.3282410565486167 1.999054746561968 0  -0.5261726437309981 -2.029224485854124 0  0.7848447307462025 -1.971202881043085 0  -1.581534750376687 -1.41364179335036 0  1.683771536530368 -1.379073931099127 0  -2.148047107177139 -0.4736784853835914 0  -0.2732254223203724 -1.252490268447736 0  0.4686431329792745 -1.239939048642581 0  2.158147880119428 -0.267751926730708 0  -1.021586332378316 -0.9015576535290821 0  1.120585307319221 -0.7973245962213289 0  0.2028869051684144 -2.2430587238207 0  -1.049853862885268 -1.995970960393364 0  2.098789376798752 0.7515877045204791 0  1.288913266135932 -1.85728067577885 0  -2.147227807968372 0.6367749500427335 0  1.404579061208924 -0.2162308938764481 0  -1.454034400456462 -0.2353521203101856 0  -1.98518147922364 -1.123268153093939 0  0.4796688354618226 0.3948858412342382 0  -0.4969893739574504 0.3544562165389488 0  0.0127061531135098 -0.1907410168623612 0  0.1528782646963104 0.7639186908259664 0  -1.695029931581223 1.476348544496631 0  1.631790090935442 1.566397454679396 0  2.03535001693132 -1.019196357608208 0  -1.49172669846104 0.4732530137618304 0  0.8379284882926074 2.10095096654859 0  -0.9476635209675406 2.062126964507438 0  -2.310659793114889 -0.03788023509391733 0  1.434213749723922 0.4227167729457886 0  2.312724195375349 0.1604101520130951 0  -0.07102582756403023 2.283769835450147 0  1.173552533443763 1.170761795194629 0  -1.237998060075154 1.117678341407504 0  0.6366187737422007 1.621043167128307 0  2.045233238825471 1.168118145211225 0  -2.106969046843541 1.053254603141783 0  -0.678429995855406 -1.144627126019582 0  -0.6629654744409087 1.569697355406625 0  -0.05132443111153194 1.736763853368116 0  -0.3273040122775287 -1.663945752133305 0  1.482932985265975 -1.010826552054711 0  -1.143902977044564 -0.5090897146932305 0  0.7143838522541588 -1.567835423865239 0  1.287383500214339 0.7905918002085603 0  -0.2940934057338095 0.7522661896197511 0  0.7150235854909458 -0.9043848066163276 0  0.4222456784830436 -0.03957244117354464 0  -1.280158448147693 -1.672431961445723 0  -0.4054128060626721 -0.07293803388103622 0  -0.2189492365273398 -2.331973000206434 0  -1.514490004609323 1.833353291393987 0  1.42783194366994 1.904405540890965 0  -0.6454366650966578 2.306812104319748 0  2.260690192027377 -0.6701240001208117 0  -1.230635997386295 -1.234726352150944 0  0.2960289039336376 2.376888583704518 0  1.778815646144274 -0.2819441173438769 0  0.0988216437157507 -1.339384872093071 0  0.4414820022806807 -1.821847244739436 0  1.723179974919059 0.6754882121552699 0  -0.9424420860985687 1.33319785593918 0  -1.779460122027158 -0.4168907599536484 0  -1.352437777058579 0.1241947577515497 0  1.06157539063926 -2.190381269959929 0  0.5891612551201747 -2.311211316299061 0  0.8520670580764229 1.332123892761555 0  -1.630279309488679 -1.774535703229776 0  -2.384615459689234 0.3459924365484326 0  0.2803222106966821 1.605332053226367 0  -1.269027946235736 0.7570408101948713 0  -0.8052479770071936 -2.274603551183628 0  -2.247319031252161 -0.8435998961387975 0  0.2063439614676531 -1.012587312738326 0  -0.7729919947853342 -1.790523817636491 0  -0.1671284178932381 -1.980398525161222 0  -1.804318866142014 0.617224098604555 0  1.639311960988713 -1.794545067998492 0  -1.931992644574958 -1.474052689804954 0  1.639805195582248 0.01609157774309589 0  -1.655098676325223 -1.091544
[...]
<PointData  Vectors="f_5035-0"> 
<DataArray  type="Float64"  Name="f_5035-0"  NumberOfComponents="3" format="ascii">-7.0900269391146239e-03 -5.4001105656810995e-02 0.0000000000000000e+00  5.7689670415142823e-03 -6.3890549574640618e-02 0.0000000000000000e+00  2.0875443586774855e-02 -7.6367681441782784e-02 0.0000000000000000e+00  3.9790788908956494e-02 -8.6422111328185724e-02 0.0000000000000000e+00  6.0307500626806308e-02 -9.2098504303123635e-02 0.0000000000000000e+00  8.3327804871030337e-02 -9.5014600033169860e-02 0.0000000000000000e+00  1.0726289653415876e-01 -9.3831469297200265e-02 0.0000000000000000e+00  1.3191485118685201e-01 -9.0452118718556657e-02 0.0000000000000000e+00  1.5145021173732218e-01 -7.8267715791525722e-02 0.0000000000000000e+00  1.5747894707336796e-01 -5.7637267380555163e-02 0.0000000000000000e+00  1.5023174380701337e-01 -3.0887886395006395e-02 0.0000000000000000e+00  1.3696995386741953e-01 -7.2741972471460619e-03 0.0000000000000000e+00  1.1786251185348903e-01 1.3934027586246730e-02 0.0000000000000000e+00  9.1751017422887840e-02 3.2609625323646294e-02 0.0000000000000000e+00  6.5826264786946073e-02 4.6010931694431691e-02 0.0000000000000000e+00  2.1003155846538155e-02 5.7027418352246229e-02 0.0000000000000000e+00  -3.7331772329236804e-02 5.3310968342084909e-02 0.0000000000000000e+00  -6.9215988832165273e-02 4.0719406893773638e-02 0.0000000000000000e+00  -1.0236702308727304e-01 2.2540732575590187e-02 0.0000000000000000e+00  -1.2445499773120614e-01 1.4594810749542350e-03 0.0000000000000000e+00  -1.4332840646485212e-01 -2.2780454278790590e-02 0.0000000000000000e+00  -1.5420896590252556e-01 -4.8569600719661536e-02 0.0000000000000000e+00  -1.5610508360595049e-01 -7.5051008987010934e-02 0.0000000000000000e+00  -1.4326960745448988e-01 -9.1837824255905573e-02 0.0000000000000000e+00  -1.2029493878944025e-01 -9.7764884225966894e-02 0.0000000000000000e+00  -9.6410243377620761e-02 -9.9636524459647172e-02 0.0000000000000000e+00  -7.3761793675761411e-02 -9.8763010661935241e-02 0.0000000000000000e+00  -5.2262803527741188e-02 -9.2561964806592817e-02 0.0000000000000000e+00  -3.2314056498212410e-02 -8.5488178523590808e-02 0.0000000000000000e+00  -1.4917619195929547e-02 -7.5712698197862013e-02 0.0000000000000000e+00  -8.2996840195118224e-04 -6.5511687955843445e-02 0.0000000000000000e+00  1.1495848016392248e-02 -5.4566741170534866e-02 0.0000000000000000e+00  2.1001927968022010e-02 -4.2644019057709051e-02 0.0000000000000000e+00  2.7861179438621358e-02 -3.1309710450545709e-02 0.0000000000000000e+00  3.2103205521410189e-02 -1.9545891292880230e-02 0.0000000000000000e+00  3.6219304716130205e-02 -9.0366976748540735e-03 0.0000000000000000e+00  3.8452773026266478e-02 1.5780931114851525e-03 0.0000000000000000e+00  3.8953063017676585e-02 1.0880997187072246e-02 0.0000000000000000e+00  3.6987562484219673e-02 2.2240141756434136e-02 0.0000000000000000e+00  3.1573629528135826e-02 3.1157304799564457e-02 0.0000000000000000e+00  2.8088878239166053e-02 3.6943793513913199e-02 0.0000000000000000e+00  2.1151462352600976e-02 4.3651434539869673e-02 0.0000000000000000e+00  1.5187385631432911e-02 4.6925320007206110e-02 0.0000000000000000e+00  9.7475534208273963e-03 4.9391498189001168e-02 0.0000000000000000e+00  2.1049156341527322e-03 5.1633290570878933e-02 0.0000000000000000e+00  -8.6740481665565118e-03 5.2095940360636347e-02 0.0000000000000000e+00  -1.6642340962415330e-02 4.9979372747564796e-02 0.0000000000000000e+00  -2.3840068842340852e-02 4.6005980862940610e-02 0.0000000000000000e+00  -2.7144432273472428e-02 4.1407545593044215e-02 0.0000000000000000e+00  -3.2038047897434627e-02 3.5775484586712182e-02 0.0000000000000000e+00  -3.6908475996511113e-02 2.7437393796393175e-02 0.0000000000000000e+00  -3.8699632354294099e-02 1.9123646161117048e-02 0.0000000000000000e+00  -3.9333145099741562e-02 1.0728024580186814e-02 0.0000000000000000e+00  -3.9553886831739299e-02 -1.1760699219030824e-03 0.0000000000000000e+00  -3.7315807695350693e-02 -1.3224057678836266e-02 0.0000000000000000e+00  -3.2239647742529930e-02 -2.2882651395404758e-02 0.0000000000000000e+00  -2.6541095358599349e-02 -3.4117168522836604e-02 0.0000000000000000e+00  -1.7684830783168348e-02 -4.4808452336506731e-02 0.0000000000000000e+00  -1.6383714740848132e-01 5.9017868761116346e-03 0.0000000000000000e+00  -1.6383121569041484e-01 -5.9173213257078267e-03 0.0000000000000000e+00  -1.6298127254715597e-01 -1.7714272733151452e-02 0.0000000000000000e+00  -1.6124537426264651e-01 -2.9563530709387619e-02 0.0000000000000000e+00  -1.5894306442025874e-01 -4.0017490235948985e-02 0.0000000000000000e+00  -1.5494725265803774e-01 -5.3450558762656378e-02 0.0000000000000000e+00  -1.5159836642823740e-01 -6.2296607404136971e-02 0.0000000000000000e+00  -1.4607496474841708e-01 -7.4094774744673048e-02 0.0000000000000000e+00  -1.3991100764276793e-01 -8.5382656562971129e-02 0.0000000000000000e+00  -1.3408894884573533e-01 -9.4315097542143692e-02 0.0000000000000000e+00  -1.2675188710455002e-01 -1.0396642557130323e-01 0.0000000000000000e+00  -1.1970234421662065e-01 -1.1197436846552411e-01 0.0000000000000000e+00  -1.1051798920870580e-01 -1.2094495636602420e-01 0.0000000000000000e+00  -1.0147892042032275e-01 -1.2862217539787718e-01 0.0000000000000000e+00  -9.0988610766843447e-02 -1.3632808898425441e-01 0.0000000000000000e+00  -8.2993678671842541e-02 -1.4133867866323971e-01 0.0000000000000000e+00  -7.1451797269397099e-02 -1.4739196761145676e-01 0.0000000000000000e+00  -5.9713590605589020e-02 -1.5264614425215484e-01 0.0000000000000000e+00  -4.9650530286745445e-02 -1.5623537829638445e-01 0.0000000000000000e+00  -3.8129650123428109e-02 -1.5945385504860524e-01 0.0000000000000000e+00  -2.6402711669422443e-02 -1.6179395244765754e-01 0.0000000000000000e+00  -1.5780907159465021e-02 -1.6314992817314217e-01 0.0000000000000000e+00  -1.7709575933853661e-03 -1.6389462193230170e-01 0.0000000000000000e+00  7.7002646797185281e-03 -1.6372286468794364e-01 0.0000000000000000e+00  2.1839825771402688e-02 -1.6244250243386707e-01 0.0000000000000000e+00  3.1158915773038261e-02 -1.6091738764293126e-01 0.0000000000000000e+00  4.3809620528835434e-02 -1.5787160238385853e-01 0.0000000000000000e+00  5.5089732737621487e-02 -1.5425594915596910e-01 0.0000000000000000e+00  6.6075884866165405e-02 -1.4988684806295577e-01 0.0000000000000000e+00  7.6736886710861971e-02 -1.4472473899693714e-01 0.0000000000000000e+00  8.8036372079421721e-02 -1.3825422867384651e-01 0.0000000000000000e+00  9.5853366933393400e-02 -1.3295343473724242e-01 0.0000000000000000e+00  1.0688340971328046e-01 -1.2426708619923506e-01 0.0000000000000000e+00  1.1476974835162121e-01 -1.1706359368063102e-01 0.0000000000000000e+00  1.2310325784592192e-01 -1.0826408772585215e-01 0.0000000000000000e+00  1.2987485026369897e-01 -1.0000366883765467e-01 0.0000000000000000e+00  1.3724437363873543e-01 -8.9470564095827723e-02 0.0000000000000000e+00  1.4389408342846424e-01 -7.8485875979560193e-02 0.0000000000000000e+00  1.4872862860164326e-01 -6.8949284611929049e-02 0.0000000000000000e+00  1.5337640574692152e-01 -5.7903309576259804e-02 0.0000000000000000e+00  1.5714231642218329e-01 -4.6727928906731650e-02 0.0000000000000000e+00  1.6012846545163434e-01 -3.5108653461436150e-02 0.0000000000000000e+00  1.6204899971505984e-01 -2.4603209321518504e-02 0.0000000000000000e+00  1.6354742063906247e-01 -1.0836333742419069e-02 0.0000000000000000e+00  1.6392803598718439e-01 -5.3906547671452643e-06 0.0000000000000000e+00  1.6354925693532507e-01 1.0833597140779678e-02 0.0000000000000000e+00  1.6209278587288317e-01 2.3576709399325761e-02 0.0000000000000000e+00  1.5980900807491027e-01 3.6393403426833462e-02 0.0000000000000000e+00  1.5744807500327357e-01 4.5537799765377654e-02 0.0000000000000000e+00  1.5322849346256395e-01 5.7860630088241154e-02 0.0000000000000000e+00  1.4833000909823787e-01 6.9739238752396085e-02 0.0000000000000000e+00  1.4349038432719161e-01 7.9278229310638840e-02 0.0000000000000000e+00  1.3732909324788709e-01 8.9550184295749791e-02 0.0000000000000000e+00  1.3052317495915614e-01 9.9201523092647320e-02 0.0000000000000000e+00  1.2293235142832980e-01 1.0845909745086130e-01 0.0000000000000000e+00  1.1557162540809492e-01 1.1623390028236663e-01 0.0000000000000000e+00  1.0605524120163019e-01 1.2483328728750907e-01 0.0000000000000000e+00  9.6741484506861763e-02 1.3217542230159504e-01 0.0000000000000000e+00  8.6006142012825693e-02 1.3952901421318215e-01 0.0000000000000000e+00  7.7818276103554476e-02 1.4425596563973506e-01 0.0000000000000000e+00  6.5038375462692130e-02 1.5045145689471282e-01 0.0000000000000000e+00  5.6264208096592529e-02 1.5394982137821295e-01 0.0000000000000000e+00  4.3818935282498174e-02 1.5787166094981950e-01 0.0000000000000000e+00  3.1162531947936993e-02 1.6092256161195106e-01 0.0000000000000000e+00  2.1837788764057686e-02 1.6244666099701421e-01 0.0000000000000000e+00  8.8687532704093477e-03 1.6356483033716737e-01 0.0000000000000000e+00  -4.1532283293491548e-03 1.6385955220169901e-01 0.0000000000000000e+00  -1.3601331403065971e-02 1.6334282146451948e-01 0.0000000000000000e+00  -2.7513653415245917e-02 1.6158830904385454e-01 0.0000000000000000e+00  -3.7992758164163878e-02 1.5948502846204970e-01 0.0000000000000000e+00  -4.9672738152412736e-02 1.5623944258152908e-01 0.0000000000000000e+00  -5.9733906283303058e-02 1.5264264004777539e-01 0.0000000000000000e+00  -7.2555821193707903e-02 1.4697420381238147e-01 0.0000000000000000e+00  -8.0924423940772802e-02 1.4253944006083089e-01 0.0000000000000000e+00  -9.1907546311399385e-02 1.3559252762408380e-01 0.0000000000000000e+00  -1.0148811116684248e-01 1.2861660039081668e-01 0.0000000000000000e+00  -1.1143817910554071e-01 1.2019415745555655e-01 0.0000000000000000e+00  -1.1816966376807587e-01 1.1357456502163946e-01 0.0000000000000000e+00  -1.2673650717797000e-01 1.0377499649979660e-01 0.0000000000000000e+00  -1.3455835939213182e-01 9.3601832879778621e-02 0.0000000000000000e+00  -1.4047160040791073e-01 8.4510579912672398e-02 0.0000000000000000e+00  -1.4572075424628733e-01 7.5042141299024576e-02 0.0000000000000000e+00  -1.5108209240573497e-01 6.3367146650217018e-02 0.0000000000000000e+00  -1.5569747960177302e-01 5.1199312598106630e-02 0.0000000000000000e+00  -1.5839042986803084e-01 4.2140375763580935e-02 0.0000000000000000e+00  -1.6142081833667588e-01 2.8436817366107672e-02 0.0000000000000000e+00  -1.6295669302439142e-01 1.7851896232411860e-02 0.0000000000000000e+00  -1.3614732132614770e-03 -5.9380066742021863e-02 0.0000000000000000e+00  -1.6160581007167388e-02 -7.8780366890057490e-02 0.0000000000000000e+00  2.6314185112667220e-02 -7.9434137155923651e-02 0.0000000000000000e+00  -5.2869357356850203e-03 8.0298354452174550e-02 0.0000000000000000e+00  -5.5719250181100653e-02 -5.5430449199863889e-02 0.0000000000000000e+00  6.0317129797377696e-02 -4.9890741192670771e-02 0.0000000000000000e+00  -8.3429198407822078e-02 -3.0612026608319950e-02 0.0000000000000000e+00  8.4157073570579985e-02 -2.3795338759668612e-02 0.0000000000000000e+00  -1.0038875649505415e-01 1.3120905675545308e-02 0.0000000000000000e+00  9.8778923409689592e-02 2.0103342739836903e-02 0.0000000000000000e+00  -8.4808361551468578e-02 6.9712805269060762e-02 0.0000000000000000e+00  8.2482234177102709e-02 7.1742760185587465e-02 0.0000000000000000e+00  -3.3966977719194165e-02 1.0779034777231404e-01 0.0000000000000000e+00  2.8196559846557185e-02 1.0879890883273598e-01 0.0000000000000000e+00  -2.1783134286973146e-02 -1.1255985146916404e-01 0.0000000000000000e+00  3.4621766171712080e-02 -1.1460316542952301e-01 0.0000000000000000e+00  -8.3596661297650560e-02 -8.7228311897443706e-02 0.0000000000000000e+00  9.4573214391969723e-02 -8.5952644344269927e-02 0.0000000000000000e+00  -1.1952209881501745e-01 -4.3191557823311195e-02 0.0000000000000000e+00  4.3629058914599242e-02 -2.2251191771333122e-02 0.0000000000000000e+00  -4.4292611908000934e-02 -4.7300980155805382e-02 0.0000000000000000e+00  1.1932784385234957e-01 -3.1745423776249740e-02 0.0000000000000000e+00  2.3800480219478070e-02 -5.8661668150925037e-02 0.0000000000000000e+00  -1.6145555735146356e-02 -5.7341161982527901e-02 0.0000000000000000e+00  9.0429814348984058e-03 -1.3239326863160797e-01 0.0000000000000000e+00  -5.7221319031449912e-02 -1.2240352513064537e-01 0.0000000000000000e+00  1.3020137421035824e-01 1.9441108689425723e-02 0.0000000000000000e+00  7.2372351724148409e-02 -1.1589138637880630e-01 0.0000000000000000e+00  -1.3271116826305870e-01 1.2247633972502423e-02 0.0000000000000000e+00  -6.8277012496764204e-03 -5.5458217184587058e-02 0.0000000000000000e+00  -3.3993238435752436e-03 -5.5035969018164037e-02 0.0000000000000000e+00  -1.1604193067783658e-01 -7.3073309475924844e-02 0.0000000000000000e+00  1.7400039542422748e-02 3.7648625924624812e-02 0.0000000000000000e+00  -2.1586848923959411e-02 3.5033252257471822e-02 0.0000000000000000e+00  -1.6314033167776732e-02 1.2368068794966638e-01 0.0000000000000000e+00  9.0636558608210467e-03 6.5751018864973060e-02 0.0000000000000000e+00  -1.1738286952098355e-01 6.8342999139966235e-02 0.0000000000000000e+00  1.1428309668871574e-01 7.5404367422733501e-02 0.0000000000000000e+00  1.1991754061328048e-01 -6.6019433135605196e-02 0.0000000000000000e+00  -4.8347642712727200e-02 -3.5660271460160729e-02 0.0000000000000000e+00  6.4973336723639280e-02 1.2107639958016757e-01 0.0000000000000000e+00  -7.0957934173361437e-02 1.1892890217646312e-01 0.0000000000000000e+00  -1.3821256849036076e-01 -1.9976752837257920e-02 0.0000000000000000e+00  3.4410337261922268e-02 -4.2686621706110005e-02 0.0000000000000000e+00  1.3975943900445967e-01 -7.2715123852401262e-03 0.0000000000000000e+00  -3.6783710702961692e-03 1.3967449206364743e-01 0.0000000000000000e+00  6.8281603571695021e-02 1.4450470413483562e-02 0.0000000000000000e+00  -7.1281629455308096e-02 1.3243599061810043e-02 0.0000000000000000e+00  4.8579573484844561e-02 6.4995907311584417e-02 0.0000000000000000e+00  1.3539760828970845e-01 5.2336008119065046e-02 0.0000000000000000e+00  -1.3843640208585017e-01 4.4301137364071791e-02 0.0000000000000000e+00  4.0667103943492794e-02 -6.3524919628450902e-02 0.0000000000000000e+00  -4.7595898197505156e-02 6.2224266558841584e-02 0.0000000000000000e+00  -1.6462883541828264e-03 8.1626374314162253e-02 0.0000000000000000e+00  4.5354800589941955e-03 -5.8928941572553017e-02 0.0000000000000000e+00  5.2194219637526983e-02 -6.3488110382134894e-02 0.0000000000000000e+00  5.0942516443374990e-02 -5.8041774056722291e-02 0.0000000000000000e+00  3.8769640026408893e-03 -7.4611924943473962e-02 0.0000000000000000e+00  5.2180151611066879e-02 -2.0832557015189084e-02 0.0000000000000000e+00  -2.2706365559525460e-02 5.9086082282218330e-02 0.0000000000000000e+00  -5.8622366592564652e-02 -6.4191486391902391e-02 0.0000000000000000e+00  -3.4991235257278264e-02 5.5592475109935473e-02 0.0000000000000000e+00  -6.4159126933986524e-02 -1.0087642652981127e-01 0.0000000000000000e+00  3.1633315387874034e-02 5.8387165818771306e-02 0.0000000000000000e+00  -1.2347615798330380e-02 -1.4179805383332858e-01 0.0000000000000000e+00  -1.0769914131342688e-01 1.0169402983129655e-01 0.0000000000000000e+00  1.0279340301143829e-01 1.0670590727692590e-01 0.0000000000000000e+00  -4.7273975715982720e-02 1.4199753868464787e-01 0.0000000000000000e+00  1.3612155639002910e-01 -4.7444073823484312e-02 0.0000000000000000e+00  -3.2311662611825054e-02 -7.2382301463474061e-02 0.0000000000000000e+00  2.3807284216989872e-02 1.4741796773704857e-01 0.0000000000000000e+00  6.1980146390122580e-02 -4.1413611647976044e-02 0.0000000000000000e+00  -1.2489085104256878e-02 -7.4638129396896961e-03 0.0000000000000000e+00  6.9407548435707102e-03 -8.5015870423989559e-02 0.0000000000000000e+00  8.6558393594980118e-02 -8.2899528234957418e-03 0.0000000000000000e+00  -6.0804239207056451e-02 3.5015445359196762e-02 0.0000000000000000e+00  -6.3799383538836879e-02 -4.7268799089533908e-02 0.0000000000000000e+00  -4.5722373989175490e-03 -6.0133325686900413e-02 0.0000000000000000e+00  6.2472475325733634e-02 -1.3827039649550193e-01 0.0000000000000000e+00  3.2272910342351843e-02 -1.4337693348071795e-01 0.0000000000000000e+00  5.6765949408624825e-02 3.1199027768241929e-02 0.0000000000000000e+00  -9.9743361315416945e-02 -1.1199482911858932e-01 0.0000000000000000e+00  -1.4916478664808663e-01 4.7281665307587449e-03 0.0000000000000000e+00  2.2809194382188827e-02 6.5868216412396777e-02 0.0000000000000000e+00  -4.9963612358642162e-02 -2.3150497358301627e-02 0.0000000000000000e+00  -4.6914528884916554e-02 -1.4198419024292278e-01 0.0000000000000000e+00  -1.3620340362637506e-01 -5.8110265152404326e-02 0.0000000000000000e+00  -6.4477421918386887e-02 -1.0777336686722854e-02 0.0000000000000000e+00  -2.4933552907972889e-02 -9.5454427460431771e-02 0.0000000000000000e+00  -5.2886101116318557e-03 -9.8076368590410204e-02 0.0000000000000000e+00  -9.4421854693691548e-02 -8.4362053901577243e-03 0.0000000000000000e+00  1.0094060918814655e-01 -1.1349221060224400e-01 0.0000000000000000e+00  -1.1906493507861106e-01 -9.3280521103877384e-02 0.0000000000000000e+00  4.0293847806087017e-02 -4.2980069469911591e-02 0.0000000000000000e+00  -7.6145453860372067e-02 -6.9048706655439704e-02 0.0000000000000000e+00  1.2547550305768601e-01 -8.5611215345539074e-02 0.0000000000000000e+00  -9.7610079268234437e-02 -3.5952292014662240e-02 0.0000000000000000e+00  -8.1333173821308141e-04 -5.1391207604448624e-02 0.0000000000000000e+00  3.9223866019351877e-02 -9.9166310753416503e-02 0.0000000000000000e+00  -9.0456322584999520e-03 -6.3971297202496918e-02 0.0000000000000000e+00  -6.6908281835841472e-03 -5.4619834585694922e-02 0.0000000000000000e+00  -2.3298420896042515e-02 6.5131899859657352e-02 0.0000000000000000e+00  -1.5036727858859000e-01 -3.1183797599200092e-02 0.0000000000000000e+00  -7.0203090504439708e-02 -6.8439340453227943e-02 0.0000000000000000e+00  1.4169609608708528e-02 -5.9969131844642636e-02 0.0000000000000000e+00  1.4874752625850257e-01 1.6032782622926511e-02 0.0000000000000000e+00  2.8212235593512238e-02 3.6135986704426228e-02 0.0000000000000000e+00  -1.8688545502696274e-02 -6.8421984749096970e-02 0.0000000000000000e+00  8.4347461819223257e-02 -4.2800063416563762e-02 0.0000000000000000e+00  8.5439359707810358e-02 1.2643081336436007e-01 0.0000000000000000e+00  -8.4366312505045324e-02 -1.2655976179055603e-01 0.0000000000000000e+00  7.9221629198281573e-02 -6.3191788964933271e-02 0.0000000000000000e+00  6.8852838103337408e-02 -9.3442189444653267e-02 0.0000000000000000e+00  1.5118206823678967e-01 -1.7508612717787544e-02 0.0000000000000000e+00  -8.9664662799424422e-02 1.0578010536375290e-01 0.0000000000000000e+00  -9.9546127716924282e-02 -5.4432409468531728e-02 0.0000000000000000e+00  4.7353750600420845e-02 1.4546100998665440e-01 0.0000000000000000e+00  9.5241802804892028e-02 3.8984848848047676e-02 0.0000000000000000e+00  9.8252482359376850e-02 -4.3974627217761700e-02 0.0000000000000000e+00  9.1117835354374108e-02 -2.9754890035245569e-02 0.0000000000000000e+00  4.9662176767273428e-02 8.9868808613827750e-03 0.0000000000000000e+00  -8.0535867538231276e-02 -6.4408454056265232e-02 0.0000000000000000e+00  -1.2280348092014565e-01 4.6912928791129620e-02 0.0000000000000000e+00  -9.8199488213953481e-02 3.2458677201146001e-02 0.0000000000000000e+00  -2.1686125739847389e-02 1.5449697340551713e-01 0.0000000000000000e+00  -1.4714039923020937e-02 -4.4540781667358968e-02 0.0000000000000000e+00  3.2085811109173485e-03 -6.7555386859640396e-02 0.0000000000000000e+00  -3.0743779949011337e-02 -1.5022066249738761e-01 0.0000000000000000e+00  1.3160988972487883e-01 7.7877943958794563e-02 0.0000000000000000e+00  1.9802491310518563e-03 -1.5510154622575081e-01 0.0000000000000000e+00  1.4771096669235628e-01 4.7502057924504050e-02 0.0000000000000000e+00  -1.3325313490499066e-01 8.1836512609801862e-02 0.0000000000000000e+00  1.1637641867004063e-01 -1.0128429765810595e-01 0.0000000000000000e+00  -3.2651835698374626e-02 2.4449273978114604e-02 0.0000000000000000e+00  1.4776723971576239e-01 -3.3052464895377991e-02 0.0