<?xml version="1.0"?>
<VTKFile type="UnstructuredGrid"  version="0.1"  >
<UnstructuredGrid>
<Piece  NumberOfPoints="1025" NumberOfCells="1947">
<Points>
<DataArray  type="Float64"  NumberOfComponents="3"  format="ascii">-1.001828974850345 0.08821448987259278 0  -0.9950222692564767 -0.02149504371842816 0  -0.9754849786930603 -0.1295036601275901 0  -0.9436431367950926 -0.2344324278294365 0  -0.8996863499966772 -0.3355773108831364 0  -0.8444971109377923 -0.4307680257123986 0  -0.779724652316843 -0.5181208192922917 0  -0.7066330094503047 -0.5964598407762233 0  -0.6275785097506577 -0.664782359203689 0  -0.5445171074567997 -0.7226818182996317 0  -0.4572225002243968 -0.7713460780538711 0  -0.3661628261402146 -0.8109616347678966 0  -0.2711832101221352 -0.8417483741926177 0  -0.1739932919081471 -0.8629929694589737 0  -0.07492160180632663 -0.8748647114698272 0  0.02460379733793544 -0.877283426965862 0  0.1237020085189002 -0.8700803777873741 0  0.221787752576999 -0.8534022703910185 0  0.3177186634739137 -0.8273278426786639 0  0.4104233217616444 -0.7921451175402036 0  0.5004008567819704 -0.7474844366472763 0  0.5856518746025284 -0.6940539858618688 0  0.6658625069142181 -0.6317312310266285 0  0.7418956234860358 -0.5587312002935602 0  0.8113243933021923 -0.4757082620021714 0  0.8716795256422761 -0.3845745525963567 0  0.9216804735088427 -0.2863159591401858 0  0.9598543087880327 -0.182965781690331 0  0.9855878854697356 -0.0766912676412175 0  0.9989939495247546 0.03233427615096718 0  0.9997728007691443 0.1415298148894001 0  0.9878313799280428 0.2500194239625837 0  0.9634711318574282 0.3567630777870407 0  0.9273964719389344 0.4594063467334282 0  0.879870306919465 0.5576271837891633 0  0.8216359492030995 0.6497309421933825 0  0.7529284919833242 0.7353376551291344 0  0.6756917267697728 0.8123227353028359 0  0.5902109188250158 0.8803780561846254 0  0.4982476765525972 0.938628424569298 0  0.4000280343337634 0.9870060389146025 0  0.2966900605399764 1.024459903551705 0  0.1908050097582772 1.050516185168159 0  0.08242110387782713 1.065118109638394 0  -0.02730122508520852 1.068096322895318 0  -0.136517790530276 1.059144336397657 0  -0.2438997631008869 1.038809402185237 0  -0.3482181404556192 1.007047733805025 0  -0.448912855695749 0.9643006496848253 0  -0.5440874096881942 0.9112054720268276 0  -0.6333986292142409 0.8477197589351407 0  -0.715142635545527 0.7748789302371897 0  -0.7880317191380904 0.6940420364950318 0  -0.8514076843523077 0.6055507552127749 0  -0.9049530278949033 0.5100481068462763 0  -0.9471874591631115 0.4098988905414869 0  -0.9776893520442682 0.3052053120111146 0  -0.9961018645769701 0.1971576677005636 0  2.232944971969455 2.861135912291637e-05 0  2.223966919103381 0.1999566877241565 0  2.197018534627448 0.3989030918522498 0  2.15248540252272 0.5940175073050746 0  2.090554499884318 0.7846264099438003 0  2.011897474002202 0.9686531034766063 0  1.916846531734527 1.145257115901315 0  1.806466478741379 1.312477189742302 0  1.681431394360003 1.469290205371401 0  1.543127215386078 1.613945530574281 0  1.392223671142589 1.745792025229443 0  1.230104131117877 1.863573179726663 0  1.058299053763019 1.966223665944218 0  0.8773836308664817 2.053343923804081 0  0.6902450777386724 2.123578686269012 0  0.4968771878332015 2.176941196950425 0  0.2997320994042881 2.212710476724987 0  0.1001756065079691 2.230671974925037 0  -0.1004163769246614 2.230683035323007 0  -0.2995006090425643 2.21276473719591 0  -0.4968695942117841 2.176942039824747 0  -0.6902442612620696 2.12357937220392 0  -0.877382231900768 2.053345084442383 0  -1.058110159277557 1.966298128491138 0  -1.230291439889887 1.863441216808619 0  -1.392202261577044 1.745806116230616 0  -1.543111873671973 1.613961957696528 0  -1.681572462135227 1.469143068852445 0  -1.806493972847014 1.312493678319255 0  -1.91687286886667 1.145280125312826 0  -2.011827462577729 0.9688148293518837 0  -2.090485355117298 0.7847853823751828 0  -2.152531710396967 0.5938136031424662 0  -2.197009565726644 0.3989400579885997 0  -2.22392532241941 0.2001610192211003 0  -2.23292220654598 -6.321385739153113e-06 0  -2.22392496971928 -0.2003973714989321 0  -2.197094379675704 -0.3984715801932671 0  -2.152444454839499 -0.5940377457816264 0  -2.090468661387512 -0.7848215933376202 0  -2.011908549073266 -0.9686215104755908 0  -1.916759519641835 -1.145444815214596 0  -1.806509728740793 -1.312469776697368 0  -1.681550104483117 -1.469163434686923 0  -1.543243910826195 -1.613817036608974 0  -1.392031747663071 -1.745927353564332 0  -1.230318524401332 -1.863420742425504 0  -1.058108654465234 -1.966296005715779 0  -0.8773818764370095 -2.053343661048058 0  -0.6902421252228046 -2.123578976098509 0  -0.496684826365607 -2.177001884029672 0  -0.2997372563856791 -2.212739736360645 0  -0.1003752576088715 -2.230685830108551 0  0.1004168242143611 -2.230681600807615 0  0.2995018830410138 -2.212763745188357 0  0.4970718215485069 -2.176913099259563 0  0.6899935189907077 -2.123670810988915 0  0.8776313013127752 -2.053247770994624 0  1.057945637948779 -1.966413940277959 0  1.230284789635691 -1.863446751581093 0  1.392220546808023 -1.745787298871355 0  1.542960401624895 -1.614093387654732 0  1.681696146316866 -1.468984861281433 0  1.806475668776047 -1.312515442395701 0  1.916884366859777 -1.145252897725738 0  2.011721244414614 -0.9690158061875347 0  2.090531200418125 -0.7845929532805267 0  2.152446773377597 -0.5940341532873676 0  2.197089453049958 -0.3985059849371953 0  2.223954729461669 -0.2001894266573249 0  7.572329933131382e-05 0.1148438704453793 0  0.1339501249457963 -1.558187004747667 0  -0.5549627136294943 -1.466282737303533 0  0.7900088768990754 -1.358272166828041 0  -1.142451043704978 -1.094590100116822 0  1.324183681915234 -0.8780569130567404 0  -1.520436128221871 -0.501771345434328 0  1.588490821347621 -0.2458697478000315 0  -1.610106121220916 0.1949869510668168 0  1.562210392401342 0.453802968340263 0  -1.393885754838015 0.8566700866028841 0  1.291656175624873 1.016064271921956 0  0.7055039710641512 1.489325427954848 0  -0.97586286762352 1.328794298727702 0  -0.2988732304497489 1.623588922982213 0  -0.5024589588977323 0.02974280892795582 0  0.5077647333518593 0.1048351152943275 0  0.2030088592819302 1.550776086460029 0  -0.3068084741772652 0.4912596662635054 0  0.2498083158604137 -0.3074333163825205 0  0.249838703330382 0.5269268649192409 0  -0.2373163396055478 -0.3432608488892523 0  1.229651977228695 -1.305282621733914 0  0.5419961917409534 -1.715631834163266 0  -0.3285854383909934 -1.806734170194334 0  -0.9458116295858844 -1.579457568240058 0  -1.538046403139959 -1.014995472277398 0  1.839185681998986 0.07506728041064824 0  1.685893682118772 -0.6531327543718229 0  -1.832293524998857 -0.2539505419213386 0  -1.717445201657544 0.6005694104682088 0  1.126201395286912 1.414200296909365 0  0.8622844749073787 1.140265757482951 0  -0.182974053881917 -1.284664985486521 0  -0.006888011867741717 1.867194070351984 0  0.9151642667733054 -0.9692863249380888 0  0.3917778569272912 -1.241702621074822 0  -0.7283270356152527 -1.096456086961808 0  -0.7185907400238309 1.666344042352692 0  -0.5443261153861406 1.328123644172242 0  1.644633209889082 0.8751509586687982 0  -1.353160003136747 1.283097394266147 0  -1.154564984359525 -0.6849015617122047 0  0.4865692900134858 1.801220949475316 0  1.263020610023556 -0.4898528909749141 0  -1.478596426922313 -0.1464569553030339 0  1.466103956316565 0.09538854928435558 0  -1.3517022912431 0.471782139184889 0  -1.7508941054576 -0.7533015497308883 0  0.1711628217300019 -1.899418098483298 0  -0.6666697986660518 -1.788010721096906 0  0.9816031812351352 -1.63925641338776 0  1.247365638121584 0.643629312412664 0  -1.010943105878746 0.9698387680265979 0  -1.912594999709441 0.06474363752508878 0  -1.396590378667667 -1.309519762388492 0  -0.04301182688603129 0.7249983825335465 0  -0.618648587495554 0.341681357715795 0  0.5733305920920568 -0.2323704028992621 0  1.520432740242044 -1.14871139179979 0  1.87830283592021 0.3947208318819877 0  0.5757127656919339 0.4360436803607228 0  -1.219282273117815 -0.3831516205188571 0  1.911884811842924 -0.263369847409263 0  1.275509168893411 -0.1845305487653481 0  0.4305183051285549 1.316250487094117 0  -0.07784488983435191 1.385178522693264 0  -1.299173418586509 0.1658388989408732 0  -1.592821963042835 1.094262703009987 0  1.279461110623677 0.3299269111116707 0  -0.5783654363098918 -0.2778717567084329 0  0.02011321054780793 -0.5350330516045042 0  1.028004582466001 -0.6915281899120671 0  -0.9259048750526937 -0.8772941013844641 0  0.6143127497313762 -1.041184167658472 0  -1.145260852572905 0.6857819760781325 0  0.9534517586304445 1.675612095858057 0  1.019490560824232 0.8776748343799516 0  1.418435872981586 1.306443688416285 0  -1.190539843641117 1.533057709158435 0  -0.2987280902339838 1.919681831079183 0  0.09735224934230506 -1.182588960205979 0  -0.4252697408480199 -1.115457564252752 0  -0.7616729575595883 1.127103075011104 0  -1.86369505756827 0.3507947421521567 0  -0.02134529998794451 0.4033621374769505 0  1.716525726669743 -0.9384058457421979 0  1.834986613778731 0.67209592926411 0  -0.153281869529832 -1.574828328041098 0  -1.220824528857759 -1.526876948423172 0  -0.7966498278032706 -1.355177782017848 0  -0.005103222123421672 -0.1705038186463561 0  -0.2367323136318885 -0.02755501744046345 0  -0.2405263511316283 0.2369093644735405 0  -1.430618313930418 -0.7591209745724434 0  -0.7456904916501533 0.1064530404175675 0  0.7491982807722555 0.174144890468936 0  0.2161649659734072 0.7813135524693986 0  -1.782049750091393 -0.5022988441834827 0  -0.3773201063569692 0.7276766233536511 0  -0.07256938904062366 -1.819609569575179 0  0.2596800480100229 -0.5670319225919002 0  -1.756815558665776 0.8752194996303472 0  0.2535968385671759 0.2472093630797301 0  0.2450145648093278 -0.02812885535057832 0  0.1699926344549807 1.299854799492754 0  0.4608582500883167 0.6665156112372347 0  -1.226027251647514 -0.1095196092231778 0  0.2354314936243828 1.799430272164399 0  0.5489254617135279 -1.454279399333902
[...]
<PointData  Vectors="f_2493-0"> 
<DataArray  type="Float64"  Name="f_2493-0"  NumberOfComponents="3" format="ascii">-1.6552550690890080e-02 -7.4861912538830011e-02 0.0000000000000000e+00  8.8583369178871999e-04 -8.8287869660639853e-02 0.0000000000000000e+00  2.0991514520804121e-02 -9.8586847894046495e-02 0.0000000000000000e+00  4.3300696678432740e-02 -1.0586687814545094e-01 0.0000000000000000e+00  6.8430380273671945e-02 -1.1184411832421123e-01 0.0000000000000000e+00  9.4137898372089454e-02 -1.1295432715015140e-01 0.0000000000000000e+00  1.1645752866206774e-01 -1.0611167620539180e-01 0.0000000000000000e+00  1.3230186037978034e-01 -9.1804063667521904e-02 0.0000000000000000e+00  1.3725168012792963e-01 -6.9975675894196843e-02 0.0000000000000000e+00  1.2969893182788864e-01 -4.4019958650279398e-02 0.0000000000000000e+00  1.1523139443351368e-01 -1.9658873440722462e-02 0.0000000000000000e+00  9.5384907085306003e-02 1.3294351320819818e-03 0.0000000000000000e+00  7.3160096992453669e-02 1.7765455981821318e-02 0.0000000000000000e+00  4.7959071415657001e-02 2.9802044858111439e-02 0.0000000000000000e+00  2.1697903987077882e-02 3.6361364949820153e-02 0.0000000000000000e+00  -5.6868776048639019e-03 3.7593269485663126e-02 0.0000000000000000e+00  -3.2929600923536397e-02 3.3979331718787739e-02 0.0000000000000000e+00  -5.8597299490568869e-02 2.4882326277698024e-02 0.0000000000000000e+00  -8.2835353755296479e-02 1.0673516095840848e-02 0.0000000000000000e+00  -1.0489689348361445e-01 -8.1962749251388630e-03 0.0000000000000000e+00  -1.2054972738365796e-01 -2.9995550079587704e-02 0.0000000000000000e+00  -1.3175275507058190e-01 -5.4840615475292363e-02 0.0000000000000000e+00  -1.3689131066693247e-01 -8.1709817737086660e-02 0.0000000000000000e+00  -1.2742271323660759e-01 -1.0137955314382209e-01 0.0000000000000000e+00  -1.0697065472933835e-01 -1.1160425391773932e-01 0.0000000000000000e+00  -8.2885557635124243e-02 -1.1498941890871922e-01 0.0000000000000000e+00  -5.6886186463464876e-02 -1.1110398487023142e-01 0.0000000000000000e+00  -3.2933052072677826e-02 -1.0420398877138586e-01 0.0000000000000000e+00  -1.1782525423153023e-02 -9.6670917290113678e-02 0.0000000000000000e+00  7.4182847562511761e-03 -8.4393131041418087e-02 0.0000000000000000e+00  2.3683119475349020e-02 -7.2333518627063706e-02 0.0000000000000000e+00  3.7282548042402636e-02 -5.9305381949416029e-02 0.0000000000000000e+00  4.7946292480582062e-02 -4.3910701673402060e-02 0.0000000000000000e+00  5.6483284133892635e-02 -3.0390006533944282e-02 0.0000000000000000e+00  6.1860737235724626e-02 -1.5168155667644054e-02 0.0000000000000000e+00  6.5126631344209485e-02 -1.0379056594606651e-03 0.0000000000000000e+00  6.3925980447252090e-02 1.5117590545408462e-02 0.0000000000000000e+00  6.2020506368128683e-02 2.8076476562825334e-02 0.0000000000000000e+00  5.7023533322911393e-02 4.0689027092792283e-02 0.0000000000000000e+00  5.1336271538011763e-02 5.1025225992342514e-02 0.0000000000000000e+00  4.2578815583999077e-02 6.0483662064100156e-02 0.0000000000000000e+00  3.1020829744745081e-02 6.8370516384538449e-02 0.0000000000000000e+00  2.1654700462532643e-02 7.3156098556363305e-02 0.0000000000000000e+00  1.0180088717015321e-02 7.6194135334796256e-02 0.0000000000000000e+00  -2.8837711626578245e-03 7.7034914890120182e-02 0.0000000000000000e+00  -1.5345076918375229e-02 7.5390776188921871e-02 0.0000000000000000e+00  -2.6267778329742825e-02 7.1631108427183274e-02 0.0000000000000000e+00  -3.5974807030202879e-02 6.5874822784549633e-02 0.0000000000000000e+00  -4.5566513135372903e-02 5.7690120640432871e-02 0.0000000000000000e+00  -5.2044815865583120e-02 4.8526489293053622e-02 0.0000000000000000e+00  -5.8944135297542284e-02 3.6272792675145139e-02 0.0000000000000000e+00  -6.3365520852194657e-02 2.2654964266262213e-02 0.0000000000000000e+00  -6.3962011929416890e-02 9.6035059211418330e-03 0.0000000000000000e+00  -6.2244800689159906e-02 -4.1273768300389624e-03 0.0000000000000000e+00  -5.9270011837313688e-02 -2.0609373805607338e-02 0.0000000000000000e+00  -5.2275718643395100e-02 -3.4095931772285031e-02 0.0000000000000000e+00  -4.2981353586196147e-02 -4.8166316627602922e-02 0.0000000000000000e+00  -3.1202650318080744e-02 -6.3206542021206971e-02 0.0000000000000000e+00  1.3103751299619526e-01 1.4467423901522844e-04 0.0000000000000000e+00  1.3056881546722029e-01 1.0706448565392514e-02 0.0000000000000000e+00  1.2871758779790154e-01 2.4399095403130573e-02 0.0000000000000000e+00  1.2636242550223992e-01 3.4718592137668418e-02 0.0000000000000000e+00  1.2264907996637088e-01 4.6172940275107786e-02 0.0000000000000000e+00  1.1849027770725234e-01 5.5905535932953443e-02 0.0000000000000000e+00  1.1238108722056350e-01 6.7115195473723188e-02 0.0000000000000000e+00  1.0589312205834925e-01 7.6951256152859998e-02 0.0000000000000000e+00  9.7985512119475024e-02 8.6980587970260911e-02 0.0000000000000000e+00  9.0668514544802209e-02 9.4633081046970116e-02 0.0000000000000000e+00  8.1726789650618345e-02 1.0247593389320189e-01 0.0000000000000000e+00  7.2093596865603404e-02 1.0944643741049573e-01 0.0000000000000000e+00  6.2999826369587064e-02 1.1489081951460270e-01 0.0000000000000000e+00  5.0377198936358676e-02 1.2094884647931647e-01 0.0000000000000000e+00  4.1656004571840884e-02 1.2422470553337256e-01 0.0000000000000000e+00  2.9160587214283426e-02 1.2765877240471796e-01 0.0000000000000000e+00  1.7573719265534263e-02 1.2972586778859890e-01 0.0000000000000000e+00  5.8525062833625239e-03 1.3078598162969418e-01 0.0000000000000000e+00  -7.0861898697465401e-03 1.3083698894608478e-01 0.0000000000000000e+00  -1.6386971267040286e-02 1.2999788912797619e-01 0.0000000000000000e+00  -2.9122517572583946e-02 1.2766277126074971e-01 0.0000000000000000e+00  -4.1651862331708790e-02 1.2422793569312604e-01 0.0000000000000000e+00  -5.0369496476989711e-02 1.2095488590132429e-01 0.0000000000000000e+00  -6.2034087440439659e-02 1.1527731263478161e-01 0.0000000000000000e+00  -7.3053990539889466e-02 1.0877216222910864e-01 0.0000000000000000e+00  -8.1618261274247150e-02 1.0254697388821235e-01 0.0000000000000000e+00  -9.0589829258263782e-02 9.4717491790958896e-02 0.0000000000000000e+00  -9.8707537717094465e-02 8.6224651217497672e-02 0.0000000000000000e+00  -1.0602908187166821e-01 7.7029815821407444e-02 0.0000000000000000e+00  -1.1250903420034969e-01 6.7229637804901460e-02 0.0000000000000000e+00  -1.1812921970854179e-01 5.6734395058552642e-02 0.0000000000000000e+00  -1.2229558814242174e-01 4.6991052844477813e-02 0.0000000000000000e+00  -1.2660167521569496e-01 3.3673441317213962e-02 0.0000000000000000e+00  -1.2867163640247711e-01 2.4588345104755993e-02 0.0000000000000000e+00  -1.3036118860063367e-01 1.1752305687053854e-02 0.0000000000000000e+00  -1.3092672055512783e-01 -3.3820244954422954e-05 0.0000000000000000e+00  -1.3035416884417150e-01 -1.2962035532287083e-02 0.0000000000000000e+00  -1.2910631624688526e-01 -2.2188889434493504e-02 0.0000000000000000e+00  -1.2616143217889078e-01 -3.4821496074123832e-02 0.0000000000000000e+00  -1.2221115423882407e-01 -4.7175398594859433e-02 0.0000000000000000e+00  -1.1854688275707488e-01 -5.5744976040297205e-02 0.0000000000000000e+00  -1.1193041584002850e-01 -6.8075621060637720e-02 0.0000000000000000e+00  -1.0610909275774340e-01 -7.6908949926393966e-02 0.0000000000000000e+00  -9.8594024810986280e-02 -8.6328562940408152e-02 0.0000000000000000e+00  -9.1269670047104845e-02 -9.3975717316417781e-02 0.0000000000000000e+00  -8.0745379893661012e-02 -1.0317055628772581e-01 0.0000000000000000e+00  -7.3191651741613517e-02 -1.0866774882369069e-01 0.0000000000000000e+00  -6.2027884926420931e-02 -1.1526623821777111e-01 0.0000000000000000e+00  -5.0367140798363116e-02 -1.2094820931756503e-01 0.0000000000000000e+00  -4.1640814310012597e-02 -1.2422600297329860e-01 0.0000000000000000e+00  -2.8172593401906070e-02 -1.2796609678595097e-01 0.0000000000000000e+00  -1.7598345575530274e-02 -1.2986818747050807e-01 0.0000000000000000e+00  -6.8780919778232748e-03 -1.3085154827887729e-01 0.0000000000000000e+00  7.0875409819270534e-03 -1.3082988667712531e-01 0.0000000000000000e+00  1.6394025952571167e-02 -1.2999284889773641e-01 0.0000000000000000e+00  3.0157112505212910e-02 -1.2751084116313216e-01 0.0000000000000000e+00  4.0369636527906004e-02 -1.2469369649248649e-01 0.0000000000000000e+00  5.1642065764783335e-02 -1.2045616413463284e-01 0.0000000000000000e+00  6.1189317107350996e-02 -1.1586538570918856e-01 0.0000000000000000e+00  7.3019880819445618e-02 -1.0880020549080248e-01 0.0000000000000000e+00  8.1711308738787208e-02 -1.0245152946356943e-01 0.0000000000000000e+00  8.9814831592456748e-02 -9.5392728159678808e-02 0.0000000000000000e+00  9.9342715478737104e-02 -8.5416018072185379e-02 0.0000000000000000e+00  1.0593720596849129e-01 -7.7139396631192902e-02 0.0000000000000000e+00  1.1256706009018416e-01 -6.7093090288738652e-02 0.0000000000000000e+00  1.1758762337741652e-01 -5.7764811869227578e-02 0.0000000000000000e+00  1.2253625106918961e-01 -4.6007270863853852e-02 0.0000000000000000e+00  1.2617299625300085e-01 -3.4803103264650338e-02 0.0000000000000000e+00  1.2908151614440944e-01 -2.2364310805747266e-02 0.0000000000000000e+00  1.3050459820064020e-01 -1.1896081579542578e-02 0.0000000000000000e+00  -5.3160584926117819e-04 1.5263742495100036e-01 0.0000000000000000e+00  6.3261774480374445e-03 -8.5966118598058985e-02 0.0000000000000000e+00  -2.7649471001044267e-02 -8.0179467469329940e-02 0.0000000000000000e+00  3.8569473633718085e-02 -7.5012836088564364e-02 0.0000000000000000e+00  -4.7985527795340391e-02 -5.7285941105859918e-02 0.0000000000000000e+00  4.6815916017593537e-02 -5.0303239208124517e-02 0.0000000000000000e+00  -4.9326738288052320e-02 -5.3588515333876603e-02 0.0000000000000000e+00  5.8600076690075359e-02 -5.4686272117287625e-02 0.0000000000000000e+00  -8.1855293352904354e-02 -4.7449024793118494e-02 0.0000000000000000e+00  9.3812559101740065e-02 -3.4464708828805896e-02 0.0000000000000000e+00  -1.0627449182929867e-01 -2.7443726106774098e-03 0.0000000000000000e+00  1.0584926252022989e-01 1.4083120796623173e-02 0.0000000000000000e+00  7.1474792004644377e-02 7.6301904309969304e-02 0.0000000000000000e+00  -9.2016169452057067e-02 5.4063091887421269e-02 0.0000000000000000e+00  -3.1546959909129445e-02 9.7411499613164768e-02 0.0000000000000000e+00  -3.6676598645126519e-02 6.9418003930961633e-02 0.0000000000000000e+00  4.1546880809744294e-02 6.7910345701726743e-02 0.0000000000000000e+00  2.2959196002164391e-02 9.2998247573151754e-02 0.0000000000000000e+00  -3.4343643951978253e-02 1.0009121184235174e-01 0.0000000000000000e+00  -7.9376843083866829e-03 1.3782386913086439e-01 0.0000000000000000e+00  2.9111297092724562e-02 1.0260591079965303e-01 0.0000000000000000e+00  1.0244260423654727e-02 1.3834115673791514e-01 0.0000000000000000e+00  7.8005691111653355e-02 -7.1391637760152865e-02 0.0000000000000000e+00  3.7813519587287826e-02 -1.0448179742861599e-01 0.0000000000000000e+00  -2.4272466306969009e-02 -1.1200321289925168e-01 0.0000000000000000e+00  -6.6130433125694124e-02 -9.2672017137675033e-02 0.0000000000000000e+00  -8.9240299007736001e-02 -5.7390253161346702e-02 0.0000000000000000e+00  1.0757647098841316e-01 -3.1929806481455499e-02 0.0000000000000000e+00  8.7586333902450533e-02 -4.8304479406424058e-02 0.0000000000000000e+00  -1.0122092531755988e-01 -4.1496645827784506e-02 0.0000000000000000e+00  -1.1643090563947364e-01 -8.7111488397924302e-03 0.0000000000000000e+00  9.9031735640645976e-02 6.4046764215998683e-02 0.0000000000000000e+00  8.2639138571589790e-02 3.2117229633056826e-02 0.0000000000000000e+00  3.1963566801869511e-03 -5.2794334214521343e-02 0.0000000000000000e+00  -5.0405916010013655e-04 1.1937515328733837e-01 0.0000000000000000e+00  -4.7086991292557175e-03 -6.0363702904815707e-02 0.0000000000000000e+00  -5.9617809000338997e-03 -5.4950640801144118e-02 0.0000000000000000e+00  6.2570435513366850e-03 -6.2202278939714334e-02 0.0000000000000000e+00  -6.6951489066272310e-02 9.5255722398818229e-02 0.0000000000000000e+00  -5.7571022496432513e-02 6.4621096807091619e-02 0.0000000000000000e+00  1.2023110802268606e-01 1.5507640088347272e-02 0.0000000000000000e+00  -1.1064877277845896e-01 5.2212388937819966e-02 0.0000000000000000e+00  1.6480103542366367e-02 -5.7936969241898797e-02 0.0000000000000000e+00  4.5681476600991963e-02 1.1080949232822546e-01 0.0000000000000000e+00  -8.9987238542898612e-03 -6.5461800530266415e-02 0.0000000000000000e+00  -4.0457750228802297e-02 -6.4317939037953575e-02 0.0000000000000000e+00  5.3505364302779683e-02 -6.2147259026435683e-02 0.0000000000000000e+00  -7.4118782361786900e-02 -4.7278522492637892e-02 0.0000000000000000e+00  -1.0054614555557327e-01 -5.0655969715000707e-02 0.0000000000000000e+00  1.2074984030882413e-02 -1.1983578529823283e-01 0.0000000000000000e+00  -4.8661902318131806e-02 -1.1001163524271612e-01 0.0000000000000000e+00  6.9680204393936254e-02 -9.8049716973103634e-02 0.0000000000000000e+00  8.1246360571217674e-02 -3.2523065084677116e-02 0.0000000000000000e+00  -8.7419817992526253e-02 8.7538954502475643e-03 0.0000000000000000e+00  -1.1587794506752171e-01 -2.6481423405118765e-02 0.0000000000000000e+00  -9.1681766625372904e-02 -7.3318265693022910e-02 0.0000000000000000e+00  -5.1477053958643541e-03 1.0030317791560994e-01 0.0000000000000000e+00  -5.2758416414818446e-02 4.0451666922535441e-02 0.0000000000000000e+00  -2.9664993843583317e-03 2.3568434514044927e-02 0.0000000000000000e+00  9.5553668780788040e-02 -6.3949351975507426e-02 0.0000000000000000e+00  1.2131041567384139e-01 -1.0065432112317300e-02 0.0000000000000000e+00  5.2869902654153172e-02 4.8991703293436016e-02 0.0000000000000000e+00  2.1941168205037487e-02 -7.7010029559210644e-02 0.0000000000000000e+00  1.1156237352926694e-01 -3.6182128018243796e-02 0.0000000000000000e+00  -1.7986542798882274e-03 -8.0977142834277094e-02 0.0000000000000000e+00  4.7118814466176259e-02 6.8150570516197370e-02 0.0000000000000000e+00  -7.9958730216168668e-03 8.3172414955746704e-02 0.0000000000000000e+00  -3.7521440143041693e-02 -7.1721615754275242e-02 0.0000000000000000e+00  -1.1964740438571457e-01 3.8865134008028664e-02 0.0000000000000000e+00  5.3608009757747654e-02 -6.0970088921005486e-02 0.0000000000000000e+00  1.1908283185431351e-02 1.6645399473139665e-02 0.0000000000000000e+00  -4.7065899683950184e-03 1.3692155576922799e-01 0.0000000000000000e+00  -4.4075487256118699e-02 -6.7139343835290077e-02 0.0000000000000000e+00  2.3807009731236305e-02 -6.1491008670634013e-02 0.0000000000000000e+00  -3.2183656298782448e-02 -6.0551010545875104e-02 0.0000000000000000e+00  -8.0445033979869351e-02 -2.6318272389663892e-02 0.0000000000000000e+00  8.1478618100877878e-02 9.4258857670238921e-02 0.0000000000000000e+00  8.3616588366049210e-02 -2.7022346241284754e-03 0.0000000000000000e+00  1.1163451519228750e-01 5.7305016385662030e-02 0.0000000000000000e+00  -9.7147605123568820e-02 8.0119604136661429e-02 0.0000000000000000e+00  -2.6334161214004538e-02 1.2137422192375999e-01 0.0000000000000000e+00  -6.3279022343289328e-03 -3.6245967287966321e-02 0.0000000000000000e+00  2.8755055071875146e-02 -4.5350096278645641e-02 0.0000000000000000e+00  -7.6009467248972576e-02 3.7672903079529863e-02 0.0000000000000000e+00  -1.1896125292395736e-01 -1.5148818606912135e-02 0.0000000000000000e+00  -2.8486513237876102e-03 1.2818465370534968e-01 0.0000000000000000e+00  1.0446780389486099e-01 -5.5798322842573404e-02 0.0000000000000000e+00  1.2490862770999070e-01 9.9564568725162648e-03 0.0000000000000000e+00  -8.6034250883845857e-03 -8.7736168008624188e-02 0.0000000000000000e+00  -8.4457256929735200e-02 -8.8773133526050929e-02 0.0000000000000000e+00  -3.8700648584196536e-02 -7.3788653838602003e-02 0.0000000000000000e+00  -1.3666786073521441e-03 1.6686777997353291e-01 0.0000000000000000e+00  -2.0322227320985230e-02 1.4075948856619788e-01 0.0000000000000000e+00  -2.7264097398798547e-02 1.2560647768828725e-01 0.0000000000000000e+00  -5.0752876390374332e-02 -5.0246186442420987e-02 0.0000000000000000e+00  -3.6487979995528941e-02 -1.0191976870667680e-02 0.0000000000000000e+00  4.4155457240998536e-02 -6.7149196423856236e-03 0.0000000000000000e+00  2.5243837725937798e-02 8.7553194670896894e-02 0.0000000000000000e+00  -9.6444674933098926e-02 -4.6378634589054168e-02 0.0000000000000000e+00  -3.9335336758552011e-02 7.7754144793957286e-02 0.0000000000000000e+00  -5.7983285367389998e-03 -1.1322467893244616e-01 0.0000000000000000e+00  -5.5468632446331281e-02 9.6192362041720630e-02 0.0000000000000000e+00  -1.2430065384430587e-01 2.4243470166883427e-02 0.0000000000000000e+00  2.8339267077688780e-02 1.2191271487438750e-01 0.0000000000000000e+00  1.9468546856640602e-02 1.3883962761936627e-01 0.0000000000000000e+00  2.0413108516646263e-02 7.5773641203836894e-02 0.0000000000000000e+00  4.8124582482688472e-02 6.8298253854131616e-02 0.0000000000000000e+00  2.5825411723205288e-03 -8.6124758822941808e-02 0.0000000000000000e+00  2.3378899295169595e-02 1.1335541897294703e-01 0.0000000000000000e+00  2.5798775592454571e-02 -7.9852871782481086e-02 0.0000000000000000e+00  -8.4731329716851100e-02 8.4075848018718910e-02 0.0000000000000000e+00  -4.7752983774940617e-02 1.1651688077416472e-01 0.0000000000000000e+00  -5.5467269966094877e-03 1.0058202250221146e-01 0.0000000000000000e+00  4.7683299651565418e-02 8.9176288465889875e-02 0.0000000000000000e+00  1.1764397105884619e-01 3.3809414775792565e-02 0.0000000000000000e+00  5.5483864483160374e-02 9.2230676463207484e-02 0.0000000000000000e+00  9.6977057112483320e-02 -7.9656041949064241e-02 0.0000000000000000e+00  6.5554951756371480e-02 1.0170833005074227e-01 0.0000000000000000e+00  5.6060308727044053e-02 -1.1156545637332839e-01 0.0000000000000000e+00  9.5026400050964840e-02 -3.7768509824197251e-02 0.0000000000000000e+00  -8.2818721552773811e-02 -4.7841645203407938e-02 0.0000000000000000e+00  8.4662636529301255e-02 -9.1365084078607411e-02 0.0000000000000000e+00  2.1342106739083502e-02 -7.9551875232811056e-02 0.0000000000000000e+00  1.1554362071098104e-01 -4.4107650664168531e-02 0.0000000000000000e+00  -6.6137535978825171e-02 4.2549854678714374e-02 0.0000000000000000e+00  -3.2252057363435546e-02 7.0228470743557952e-02 0.0000000000000000e+00  3.0081774321289147e-02 -1.2169815943952504e-01 0.0000000000000000e+00  5.8549326534224212e-02 6.1783019576100030e-02 0.0000000000000000e+00  6.3633399019152534e-02 4.7471473873175934e-02 0.0000000000000000e+00  -1.0176587570955987e-01 3.1902099629936620e-02 0.0000000000000000e+00  9.1589403839286293e-02 9.0692976587281010e-02 0.0000000000000000e+00  -6.8974282029248074e-02 1.0845990877429841e-01 0.0000000000000000e+00  -1.5448130919816387e-02 -1.2595439599911984e-01 0.0000000000000000e+00  1.0487878312249115e-01 -6.9831118629241273e-03 0.0000000000000000e+00  -6.2457061329684982e-02 -7.2564736748432043e-02 0.0000000000000000e+00  4.6218984427192189e-02 -5.6095224712809387e-02 0.0000000000000000e+00  4.0128076742673290e-02 -6.4778082262717224e-02 0.0000000000000000e+00  1.4913001134867898e-02 1.2730163966340638e-01 0.0000000000000000e+00  -5.5793038063856860e-02 4.9761674798088670e-02 0.0000000000000000e+00  5.1000044894197176e-02 -9.3417241586422159e-02 0.0000000000000000e+00  8.7965823740604618e-02 -4.6205888509556169e-02 0.0000000000000000e+00  4.3873343334004770e-02 -5.4012304103608924e-02 0.0000000000000000e+00  3.8908680197695153e-02 -5.0866755723135711e-02 0.0000000000000000e+00  1.1810437209682995e-02 -3.3486731682459088e-02 0.0000000000000000e+00  9.5950901682738191e-02 2.2208349715037254e-02 0.0000000000000000e+00  -5.3645783593108572e-02 -5.1834300494856989e-02 0.0000000000000000e+00  -1.2775359343017131e-01 1.4961787352348850e-02 0.0000000000000000e+00  6.4225148530988110e-02 -7.9836670348780295e-02 0.0000000000000000e+00  2.0593173733058606e-02 -1.0341904183826059e-01 0.0000000000000000e+00  -6.1960076881106441e-02 -1.1142983150361670e-01 0.0000000000000000e+00  -7.6139208758968374e-02 5.9521019653741604e-02 0.0000000000000000e+00  1.1899327853824590e-02 -7.5928655554544630e-02 0.000000000000000