<?xml version="1.0"?>
<VTKFile type="UnstructuredGrid"  version="0.1"  >
<UnstructuredGrid>
<Piece  NumberOfPoints="821" NumberOfCells="1550">
<Points>
<DataArray  type="Float64"  NumberOfComponents="3"  format="ascii">-0.936827939140735 0.03102272830066972 0  -0.9423321102987035 -0.07093432339238616 0  -0.936523364292164 -0.1728534875359032 0  -0.9194533635189917 -0.2734692175334471 0  -0.8912590637222315 -0.3714940564864906 0  -0.8527421422522695 -0.4658349888045576 0  -0.8039771133738534 -0.5548166948805237 0  -0.7460004245400748 -0.6374123390918022 0  -0.6798554071519483 -0.7132591691181145 0  -0.6060480279885492 -0.7815099597627525 0  -0.5256698089136574 -0.8414979827228078 0  -0.439422635465538 -0.8926178660104213 0  -0.3483048950702369 -0.934464720199509 0  -0.2532781109240921 -0.9665047324014688 0  -0.1553867779652114 -0.9883675127314787 0  -0.0558599481038177 -0.9999525363507862 0  0.04449269414987091 -1.000893906756096 0  0.1442357648335083 -0.9905425768986292 0  0.2422753260631385 -0.9698641758165419 0  0.337649580004518 -0.9390992814624317 0  0.4293181843176087 -0.8984695055606411 0  0.5160962716126838 -0.848300968726853 0  0.5973157558108022 -0.78933398229521 0  0.671882262801949 -0.7220636396328469 0  0.7390141223485542 -0.6471709344090052 0  0.7978655098091371 -0.5652010265496941 0  0.8476748451013627 -0.4767587519107772 0  0.8873978250058024 -0.3830653792122554 0  0.9166903173687032 -0.2854118102416494 0  0.9350315267389394 -0.1850729189270828 0  0.9422479042057957 -0.08326424121639346 0  0.9380749143173662 0.0187072513021002 0  0.922798571766858 0.1196328582878609 0  0.8964498386407618 0.2182815808675354 0  0.859394122915651 0.3133538253375066 0  0.8121753587943591 0.4039304221197937 0  0.7554393344820443 0.4887927432257614 0  0.6898462629160608 0.5670472295295524 0  0.6161566147428695 0.6378097451913313 0  0.5352283300313516 0.7001100293417087 0  0.4479757714345556 0.7533078586311607 0  0.3554983166135933 0.7969226969473079 0  0.2588707795090969 0.8303692209548166 0  0.1591573602213461 0.8533011800230189 0  0.05747546304179904 0.8653972191322029 0  -0.04488925438038874 0.8657030543889929 0  -0.1466355096176838 0.855028201934848 0  -0.2466198968414645 0.8334277202437432 0  -0.3437038693512149 0.8012758244664048 0  -0.4367343852098506 0.7590020679844154 0  -0.5246327717237136 0.7069459737533085 0  -0.6064314995274077 0.6457256817797418 0  -0.6810927134558847 0.5760473888150005 0  -0.7478041217052895 0.4987001125801606 0  -0.8057322561307033 0.4145792060327251 0  -0.8541224801522326 0.3246442425489575 0  -0.8924998687517991 0.230050349694779 0  -0.9201324086840745 0.1317821406959741 0  -1.91000706494308 0.09532448962064163 0  -1.91000706494308 -0.09532448962064116 0  -1.891024556624335 -0.2850260912577163 0  -1.853248196682773 -0.471894975546429 0  -1.797053423555248 -0.6540739555602845 0  -1.722998726143682 -0.829752454748501 0  -1.631820093301446 -0.9971845012592077 0  -1.524423699245477 -1.15470608019212 0  -1.401876897589795 -1.30075167132621 0  -1.265397613505757 -1.433869807963 0  -1.116342239434529 -1.552737502254716 0  -0.9561921546496172 -1.656173393651896 0  -0.7865390026441182 -1.74314948979527 0  -0.6090688726625959 -1.812801383165688 0  -0.4255455425886676 -1.864436841954383 0  -0.2377929497279904 -1.897542689773692 0  -0.0476770636998672 -1.911789905834549 0  0.1429126584071414 -1.907036894902906 0  0.3320820503086429 -1.883330894536784 0  0.5179510615999425 -1.840907505618196 0  0.6986724425416028 -1.780188350845737 0  0.8724501028572788 -1.701776884458782 0  1.037556962085802 -1.606452394838141 0  1.192352114082731 -1.495162259588021 0  1.335297135082831 -1.369012530071767 0  1.464971373246604 -1.2292569389765 0  1.58008606773654 -1.077284440154407 0  1.679497157001312 -0.9146054045753418 0  1.762216648973466 -0.7428366095815715 0  1.827422440178461 -0.5636851706281738 0  1.874466486168351 -0.3789315752026877 0  1.902881242078646 -0.1904119875405543 0  1.912384309299236 0 0  1.902881242078646 0.1904119875405531 0  1.874466486168351 0.3789315752026874 0  1.827422440178462 0.5636851706281728 0  1.762216648973466 0.7428366095815715 0  1.679497157001313 0.9146054045753411 0  1.580086067736541 1.077284440154405 0  1.464971373246605 1.229256938976499 0  1.335297135082831 1.369012530071767 0  1.192352114082732 1.495162259588021 0  1.037556962085801 1.606452394838141 0  0.8724501028572791 1.701776884458782 0  0.6986724425416035 1.780188350845737 0  0.5179510615999426 1.840907505618196 0  0.3320820503086437 1.883330894536784 0  0.1429126584071415 1.907036894902906 0  -0.04767706369986673 1.911789905834549 0  -0.2377929497279891 1.897542689773692 0  -0.4255455425886671 1.864436841954383 0  -0.6090688726625946 1.812801383165688 0  -0.7865390026441179 1.743149489795271 0  -0.9561921546496184 1.656173393651895 0  -1.116342239434528 1.552737502254717 0  -1.265397613505756 1.433869807963001 0  -1.401876897589794 1.30075167132621 0  -1.524423699245477 1.154706080192121 0  -1.631820093301446 0.9971845012592081 0  -1.722998726143682 0.8297524547485015 0  -1.797053423555248 0.6540739555602849 0  -1.853248196682773 0.4718949755464295 0  -1.891024556624335 0.2850260912577168 0  0.001024049867869081 -0.06744700968715645 0  0.1703082834213003 1.380466159963825 0  -0.3775079925929409 1.341743165557942 0  0.6660791572618493 1.224917025019273 0  -0.8754147189941064 1.090381567682527 0  1.11368399186892 0.8556915197471895 0  -1.240265047355318 0.6754123463015658 0  1.351581788393589 0.4188916470814013 0  -1.418214828955113 0.1419137980706781 0  1.429867720578741 -0.07136173116368028 0  -1.375392408327053 -0.4242523717136883 0  1.30019134109414 -0.62613914946426 0  -0.4705579873483812 -0.0951713031892972 0  0.4712044201925515 -0.1010359472950291 0  -1.156552078278165 -0.8639467672960565 0  -0.2433701162401387 0.3322626202952162 0  -0.2110709727140945 -0.4843710443461203 0  0.2648913664573871 0.3185828819954025 0  0.945097610268717 -1.099874196179561 0  -0.7898774485684518 -1.222969499747327 0  0.464547825609971 -1.382656344151877 0  -0.3036923713284362 -1.422323531145499 0  0.2401975707291666 -0.488718855434743 0  0.07949161046377329 -1.384360029409747 0  -0.118514183612291 1.572098474367844 0  -0.7199457503287597 1.401239852942965 0  -1.210094462606637 1.016762628078139 0  1.048651125426035 1.188266179567891 0  -1.511170845827173 0.4693465836855127 0  0.5082645822332141 1.512772658465701 0  -1.578157370273163 -0.1548861195277465 0  1.255332124230737 -0.9624642757257166 0  1.539779626474419 -0.3920760697259235 0  0.01645768383192525 0.5370931391496833 0  -0.5488851456727483 0.2183947161555744 0  0.790302462583181 -1.386526465668421 0  1.028957845358883 -0.7611161232187984 0  0.6437145494560619 -1.122245884630072 0  -0.5197215185283777 -0.4169337612831703 0  1.585903817442818 0.2049320555549685 0  0.5611554282925389 0.2037182182942735 0  1.460340330811768 0.7032628381399374 0  0.7896022034587503 0.918737558605943 0  -0.550153901243065 1.064909624051912 0  -0.09132699172167152 1.187479814439493 0  -1.134802801144458 -1.163455842980545 0  -0.592933562080183 -1.510770077320968 0  -0.002892241375771563 -0.7028539342149764 0  1.231300855729422 -0.3174920475800483 0  -0.9342843342695719 0.7742641228775727 0  -1.25447277372572 -0.1304039821555019 0  0.5699305869570348 -0.3785845020730058 0  -1.432540661309732 -0.7270023491141513 0  0.3638374849801707 1.129445766898162 0  -1.184601786909353 0.3604186533202243 0  0.2048094056537831 -1.634340256680399 0  -0.1228579716196771 -1.639425697646596 0  1.077950135391001 0.5530454816732626 0  1.209188403784828 0.1113625764275686 0  0.8752142129098215 1.392905297237405 0  0.206312838625626 1.646337366975502 0  -0.4939329251787866 -1.193750971587551 0  -0.3797939410089705 1.605087333723249 0  -1.12429415762902 -0.5735849590367597 0  -0.8283953233674989 -0.9479259266316838 0  -1.036873123324323 1.300197771837151 0  1.358496551436486 0.9420484004551466 0  0.009503192757391116 0.278703697226107 0  -1.490852709344815 0.7237421874548082 0  1.589642252781646 0.4908278662043781 0  -1.660548004184926 0.08100906447373987 0  -1.173567943279102 0.1036304617262407 0  -0.1281410339856845 -1.241435706862517 0  1.65573885145363 -0.1731446158129502 0  0.2628321195885839 0.5667242186783031 0  0.2265638101397709 -0.2179290146724217 0  0.2487366439327559 0.05011197151433572 0  -0.00801773813937216 -0.325257180061531 0  -0.2284674540416217 -0.1884620393359031 0  -0.2193586829730014 0.07237422541631899 0  -1.01722567152804 0.5418058922089439 0  -0.6905632032363169 0.01643840760001989 0  0.7048306457534119 -0.04190896002440926 0  -0.7075714297783878 0.8737948989371671 0  -1.609495778417719 -0.4964636980128775 0  -0.4604266557922881 0.4478471545683104 0  -0.2285480258477702 0.5806720014640091 0  1.0837879302259 -0.5215957943239942 0  1.519291335715454 -0.731652145854751 0  -0.4047716889775657 -0.6308680273418962 0  0.5519524735775709 0.9740458070435063 0  -0.3058608646826875 1.07049477694709 0  0.4802333961249935 0.4345015754647665 0  1.170676992362239 -1.190253696993091 0  -1.326643553483677 -1.02684241664302 0  -0.957683600783711 -0.7390674203156353 0  0.2712983760770782 -1.220475018781427 0  0.4227392051195569 -0.6342953258817844 0  0.8339055980078509 -0.8925894717526048 0  -0.6778502706299161 -0.2289102045366001 0  0.920108602182655 0.7251146534874856 0  -0.918500198607426 -1.422116469389743 0  -1.156767081592886 -0.3424138343240685 0  0.6253930449610606 -1.555636606812371 0  1.106252903555481 0.3211161304637076 0  0.1279563682112073 1.09337419505312 0  -0.352390818505791 -1.64675044800249 0  0.2159994808440054 -0.7062961692435161 0  1.163248803628947 -0.1060035344039736 0  0.9917329801368717 -1.31017938493197 0  0.4142909538470232 -1.590658430276152 0  -0.6020212979337809 1.590186551765868 0  -1.683180659680989 0.3402623111322635 0  -1.41912681892752 0.9675442824620513 0  1.263522608487987 1.140598033015392 0  -0.6300130234563703 -1.02845516840172 0  1.275964681017894 0.6107947143485593 0  0.72
[...]
<PointData  Vectors="f_771-0"> 
<DataArray  type="Float64"  Name="f_771-0"  NumberOfComponents="3" format="ascii">-4.8402151826913944e-02 -1.2043551043260037e-01 0.0000000000000000e+00  -2.7345323928748021e-02 -1.3166813857478935e-01 0.0000000000000000e+00  -5.1448451867947059e-03 -1.4351343388308213e-01 0.0000000000000000e+00  2.1601938359172557e-02 -1.5215155428068497e-01 0.0000000000000000e+00  4.6818089712868369e-02 -1.5408521574841855e-01 0.0000000000000000e+00  7.7303265413637315e-02 -1.4693303043645603e-01 0.0000000000000000e+00  9.7569984980107730e-02 -1.3506277305198414e-01 0.0000000000000000e+00  1.0554236294374114e-01 -1.1596362169452917e-01 0.0000000000000000e+00  1.1208343111233056e-01 -8.9690657923474637e-02 0.0000000000000000e+00  1.1223581378962601e-01 -6.0721730285811591e-02 0.0000000000000000e+00  1.0647900424525879e-01 -3.1217772996739310e-02 0.0000000000000000e+00  9.4315975979339536e-02 -9.0096548894890577e-03 0.0000000000000000e+00  8.0435331454684927e-02 1.3226062981352378e-02 0.0000000000000000e+00  5.5222120177937040e-02 3.3782024885304247e-02 0.0000000000000000e+00  3.3336201478063744e-02 4.5523811945419171e-02 0.0000000000000000e+00  1.1706754977476277e-02 5.5445112317691184e-02 0.0000000000000000e+00  -1.2498487938217154e-02 5.9283675310903346e-02 0.0000000000000000e+00  -3.5525925557354884e-02 4.8608689286569313e-02 0.0000000000000000e+00  -5.3617008468655691e-02 3.4911468354056528e-02 0.0000000000000000e+00  -7.2362994805109215e-02 1.8624238020220264e-02 0.0000000000000000e+00  -9.0826717677275820e-02 -2.3051861761389392e-03 0.0000000000000000e+00  -1.0092424652420436e-01 -2.7850086716689291e-02 0.0000000000000000e+00  -1.1014647530125896e-01 -5.5981769554372694e-02 0.0000000000000000e+00  -1.1500071472403080e-01 -8.6526878655969267e-02 0.0000000000000000e+00  -1.1007860942463300e-01 -1.1274094588219462e-01 0.0000000000000000e+00  -9.9226108358699550e-02 -1.3388080114197587e-01 0.0000000000000000e+00  -7.8399647415681090e-02 -1.4608331834066920e-01 0.0000000000000000e+00  -5.2597668728467994e-02 -1.5563420529529631e-01 0.0000000000000000e+00  -2.3323884919759282e-02 -1.5307830247206602e-01 0.0000000000000000e+00  4.1054641587347429e-03 -1.4472479681764644e-01 0.0000000000000000e+00  2.7200546304309854e-02 -1.3503136010086303e-01 0.0000000000000000e+00  4.7697164986909651e-02 -1.1958510639679974e-01 0.0000000000000000e+00  6.2655056445931237e-02 -1.0265782641800879e-01 0.0000000000000000e+00  7.5492206128400408e-02 -8.4715527938079849e-02 0.0000000000000000e+00  8.8225952781693789e-02 -6.7555405874879820e-02 0.0000000000000000e+00  9.6327637096414134e-02 -4.7180885350740207e-02 0.0000000000000000e+00  9.7104049561006239e-02 -2.4337680283307645e-02 0.0000000000000000e+00  9.3600078883581336e-02 -6.6209118551039687e-03 0.0000000000000000e+00  8.7110975545912198e-02 8.9904380451294348e-03 0.0000000000000000e+00  7.9841804931780933e-02 2.5872798466135077e-02 0.0000000000000000e+00  6.9270364177733468e-02 4.1006622779390829e-02 0.0000000000000000e+00  5.8948729513331535e-02 4.8522718199006096e-02 0.0000000000000000e+00  4.4241731333567583e-02 5.7903099384311318e-02 0.0000000000000000e+00  2.5722051222589647e-02 6.2708084524314756e-02 0.0000000000000000e+00  9.8240261492162102e-03 6.1213002211486386e-02 0.0000000000000000e+00  -6.1413434503165545e-03 6.4374661527807991e-02 0.0000000000000000e+00  -2.7655016192747472e-02 6.4577818300167886e-02 0.0000000000000000e+00  -4.2575849222948353e-02 6.1170382522713194e-02 0.0000000000000000e+00  -5.5696584599973016e-02 5.3844086053473128e-02 0.0000000000000000e+00  -6.9628350688480653e-02 4.1324637829153757e-02 0.0000000000000000e+00  -8.1536871754110257e-02 2.5792928607959047e-02 0.0000000000000000e+00  -8.6988313890281638e-02 1.2419301789361820e-02 0.0000000000000000e+00  -9.1927818568166522e-02 -2.5481540923506913e-03 0.0000000000000000e+00  -9.6001576510026457e-02 -2.3267431097170020e-02 0.0000000000000000e+00  -9.5123859631974714e-02 -4.4577403168401579e-02 0.0000000000000000e+00  -8.9154724187271092e-02 -6.1159840793035797e-02 0.0000000000000000e+00  -8.0022632316052791e-02 -8.6033716673610858e-02 0.0000000000000000e+00  -6.7174534190864263e-02 -1.0456210413092458e-01 0.0000000000000000e+00  -1.0657702543622037e-01 5.4404424762334808e-03 0.0000000000000000e+00  -1.0657939302513557e-01 -5.4569413451622988e-03 0.0000000000000000e+00  -1.0561588723338981e-01 -1.4996699005036650e-02 0.0000000000000000e+00  -1.0325749830164464e-01 -2.6283031056667114e-02 0.0000000000000000e+00  -1.0011834329896950e-01 -3.6465458016632840e-02 0.0000000000000000e+00  -9.5717539121423126e-02 -4.7099568199063073e-02 0.0000000000000000e+00  -9.1050731872148558e-02 -5.5640520480552930e-02 0.0000000000000000e+00  -8.5573599116068266e-02 -6.3709020683424974e-02 0.0000000000000000e+00  -7.7604945233771400e-02 -7.3210278506032317e-02 0.0000000000000000e+00  -7.0603218381780464e-02 -8.0016341319196924e-02 0.0000000000000000e+00  -6.3005332301520153e-02 -8.6097759549514527e-02 0.0000000000000000e+00  -5.3279156703895568e-02 -9.2289093225021421e-02 0.0000000000000000e+00  -4.3052909600341194e-02 -9.7616124625089395e-02 0.0000000000000000e+00  -3.4095352073178452e-02 -1.0112894369863666e-01 0.0000000000000000e+00  -2.3735456374745244e-02 -1.0405643955850589e-01 0.0000000000000000e+00  -1.3267198562101202e-02 -1.0590106563797153e-01 0.0000000000000000e+00  -2.6774802918581725e-03 -1.0669649181861388e-01 0.0000000000000000e+00  8.0942937677775436e-03 -1.0640916090338463e-01 0.0000000000000000e+00  1.7627045415817399e-02 -1.0521918503444515e-01 0.0000000000000000e+00  2.8880220000165886e-02 -1.0260877389765079e-01 0.0000000000000000e+00  3.9822458153998097e-02 -9.8975871372972729e-02 0.0000000000000000e+00  4.8585744063862790e-02 -9.5019852387919018e-02 0.0000000000000000e+00  5.7902114174606785e-02 -8.9659284994031363e-02 0.0000000000000000e+00  6.6626402672693610e-02 -8.3373301651403109e-02 0.0000000000000000e+00  7.3837787215494860e-02 -7.7003514161928660e-02 0.0000000000000000e+00  8.1618880340171285e-02 -6.8519957304162382e-02 0.0000000000000000e+00  8.8062560124192071e-02 -6.0052631223556682e-02 0.0000000000000000e+00  9.3573617554577909e-02 -5.0961894481262641e-02 0.0000000000000000e+00  9.8185362770893028e-02 -4.1387347802647780e-02 0.0000000000000000e+00  1.0182330865080783e-01 -3.1396817584888027e-02 0.0000000000000000e+00  1.0474205166742026e-01 -2.0268340610545218e-02 0.0000000000000000e+00  1.0617411696686323e-01 -1.0631455904319855e-02 0.0000000000000000e+00  1.0668050341788235e-01 -9.0438008216642621e-04 0.0000000000000000e+00  1.0605969472153291e-01 1.0601691531800487e-02 0.0000000000000000e+00  1.0439558749929292e-01 2.2007372940608144e-02 0.0000000000000000e+00  1.0197512736625779e-01 3.1445128481742031e-02 0.0000000000000000e+00  9.8655705867151985e-02 4.0624079119193593e-02 0.0000000000000000e+00  9.3274435093745334e-02 5.1798315341803389e-02 0.0000000000000000e+00  8.8180596942381756e-02 6.0110628656954532e-02 0.0000000000000000e+00  8.2303396040112706e-02 6.7898827344349363e-02 0.0000000000000000e+00  7.3733910077589060e-02 7.7112830843861641e-02 0.0000000000000000e+00  6.7338170069760533e-02 8.2734109789027691e-02 0.0000000000000000e+00  5.7128654477940848e-02 9.0111596163588298e-02 0.0000000000000000e+00  4.8800538821019313e-02 9.4926540372778895e-02 0.0000000000000000e+00  3.8983527520034852e-02 9.9371265856474267e-02 0.0000000000000000e+00  2.8919294861072111e-02 1.0274781820344844e-01 0.0000000000000000e+00  1.8426662311399559e-02 1.0512849133558851e-01 0.0000000000000000e+00  8.8854037998976395e-03 1.0632931228698284e-01 0.0000000000000000e+00  -2.6444541839183763e-03 1.0654551811918814e-01 0.0000000000000000e+00  -1.3270231619161981e-02 1.0578215595900584e-01 0.0000000000000000e+00  -2.4787677840488218e-02 1.0377283182121810e-01 0.0000000000000000e+00  -3.2960227086975200e-02 1.0147183983047442e-01 0.0000000000000000e+00  -4.3860919579810656e-02 9.7167382025402677e-02 0.0000000000000000e+00  -5.4132435872697914e-02 9.1947742970924867e-02 0.0000000000000000e+00  -6.2298778707631938e-02 8.6655641132009575e-02 0.0000000000000000e+00  -6.9933596997823422e-02 8.0584684584664376e-02 0.0000000000000000e+00  -7.8125953888271177e-02 7.2485861699995532e-02 0.0000000000000000e+00  -8.5600222717940502e-02 6.3687810507182030e-02 0.0000000000000000e+00  -9.1011726217311947e-02 5.5735372624924180e-02 0.0000000000000000e+00  -9.6168296883199514e-02 4.6306907201611291e-02 0.0000000000000000e+00  -1.0032631435195069e-01 3.6383330342880535e-02 0.0000000000000000e+00  -1.0315805759427200e-01 2.7197209489276574e-02 0.0000000000000000e+00  -1.0562321669427133e-01 1.4993901275148798e-02 0.0000000000000000e+00  -2.1748488787181076e-04 1.8592734722002610e-01 0.0000000000000000e+00  1.6973600543912531e-02 7.6439093550982162e-02 0.0000000000000000e+00  -3.7139858265843470e-02 7.1964583278726971e-02 0.0000000000000000e+00  6.5835900236451944e-02 5.5102486433292096e-02 0.0000000000000000e+00  -8.3358145311623597e-02 3.6029063778503477e-02 0.0000000000000000e+00  9.7296939168163760e-02 3.5444480868985022e-03 0.0000000000000000e+00  -1.0024590191705519e-01 -1.9449888774876835e-02 0.0000000000000000e+00  9.4273589741197900e-02 -4.7849430323303584e-02 0.0000000000000000e+00  -7.9470241578218886e-02 -7.0218254199820002e-02 0.0000000000000000e+00  6.5169263179093703e-02 -8.1462266304623832e-02 0.0000000000000000e+00  -4.0018440217246966e-02 -8.6979308587406920e-02 0.0000000000000000e+00  2.9051447465879482e-02 -8.6383508784539681e-02 0.0000000000000000e+00  -3.8976793106714550e-02 8.7387051987197428e-02 0.0000000000000000e+00  3.8371532876609618e-02 8.8723577982568372e-02 0.0000000000000000e+00  -2.1426879296492694e-02 -8.6560577106973582e-02 0.0000000000000000e+00  -4.2091222087937939e-02 1.2012109352840140e-01 0.0000000000000000e+00  1.9031219919997389e-02 1.5742252274069399e-01 0.0000000000000000e+00  4.3320013942799454e-02 1.1796653045006521e-01 0.0000000000000000e+00  1.1376067104203143e-02 -8.8760365199924168e-02 0.0000000000000000e+00  -2.4306378684478187e-03 -8.4860587077100577e-02 0.0000000000000000e+00  -7.1196719008439014e-03 -7.1884200121659789e-02 0.0000000000000000e+00  7.4492922325127926e-03 -6.8544384619828369e-02 0.0000000000000000e+00  -2.1428075815620742e-02 1.5090845083908580e-01 0.0000000000000000e+00  -3.0656805856756936e-03 -4.6554880796256963e-02 0.0000000000000000e+00  -9.9242615703190682e-03 9.3783077178182531e-02 0.0000000000000000e+00  -6.1813023138245750e-02 7.4933339333692062e-02 0.0000000000000000e+00  -9.7632959354703994e-02 3.1518248863358328e-02 0.0000000000000000e+00  8.6636078184114632e-02 5.0452430183955482e-02 0.0000000000000000e+00  -1.0387558655032553e-01 -2.2302294122371662e-02 0.0000000000000000e+00  4.3347575487738169e-02 8.7092963985188565e-02 0.0000000000000000e+00  -8.2153319166853422e-02 -6.0429714637253558e-02 0.0000000000000000e+00  5.0034846147298147e-02 -7.9822218596803038e-02 0.0000000000000000e+00  7.2045487656880486e-02 -6.7431158561614843e-02 0.0000000000000000e+00  1.2686491099282073e-03 1.1002190408039737e-01 0.0000000000000000e+00  -7.5046509713206644e-02 4.5417298819387074e-02 0.0000000000000000e+00  2.2106456886978008e-02 -9.2573247433010111e-02 0.0000000000000000e+00  -2.4064298110509627e-02 -1.0267194774477635e-01 0.0000000000000000e+00  -3.4491869942273351e-02 -7.0998715020426761e-02 0.0000000000000000e+00  3.2726370236570247e-02 4.5972651122841268e-02 0.0000000000000000e+00  9.8253854286884920e-02 -3.9456356197483299e-02 0.0000000000000000e+00  7.3801051770015641e-02 4.2837783678157292e-02 0.0000000000000000e+00  1.0600874692881425e-01 3.7236267063660931e-03 0.0000000000000000e+00  8.3872461601733617e-02 1.1971804416230860e-02 0.0000000000000000e+00  -6.2685131830462815e-02 4.0573381157500817e-02 0.0000000000000000e+00  -8.8676918503791755e-03 6.0254852665417837e-02 0.0000000000000000e+00  -4.8291681151012275e-02 -8.5456423195299988e-02 0.0000000000000000e+00  -1.6052904290099906e-02 -9.3320716910815837e-02 0.0000000000000000e+00  1.0215586478401659e-03 1.4270357199316369e-01 0.0000000000000000e+00  1.1101152123085597e-02 -1.1523119315036649e-01 0.0000000000000000e+00  -9.3732487894702204e-02 -1.1176301179611041e-02 0.0000000000000000e+00  -3.1984477240761082e-02 -1.1220985525606698e-01 0.0000000000000000e+00  -2.2591661081609780e-02 2.4160870334556675e-02 0.0000000000000000e+00  -6.3194920910208716e-02 -7.1500733141697984e-02 0.0000000000000000e+00  4.1554363710738548e-02 5.3722481223638048e-02 0.0000000000000000e+00  -8.2428666770460193e-02 -7.2566049882784853e-02 0.0000000000000000e+00  5.5422856855350828e-03 -9.2197927046543685e-02 0.0000000000000000e+00  -1.3598842569870939e-03 -9.2571927302780424e-02 0.0000000000000000e+00  9.4095835476126044e-02 -4.5729346228046065e-02 0.0000000000000000e+00  5.9597346713655283e-02 -1.0294064074007553e-01 0.0000000000000000e+00  7.0415076594771225e-02 7.3357928978182302e-02 0.0000000000000000e+00  1.6476468513110760e-02 9.8851896371931341e-02 0.0000000000000000e+00  3.3177366379568113e-02 -5.5025698578222933e-02 0.0000000000000000e+00  -3.0388620853629832e-02 9.5214425538329095e-02 0.0000000000000000e+00  1.8723524461609718e-02 -1.1244733965478272e-01 0.0000000000000000e+00  3.8638782806382610e-02 -9.2590302080644130e-02 0.0000000000000000e+00  -8.0787174482508634e-02 6.4409694291319833e-02 0.0000000000000000e+00  1.0111149531186144e-01 2.9173970910715392e-02 0.0000000000000000e+00  4.2991546713102641e-04 1.4761273058878951e-01 0.0000000000000000e+00  -1.0615313650788769e-01 9.0448520227158161e-03 0.0000000000000000e+00  1.0663079598507072e-01 -9.1483099479196719e-03 0.0000000000000000e+00  -9.9140291061720329e-02 -3.7078645537235708e-02 0.0000000000000000e+00  -5.5830898230145740e-02 -1.0719188961879934e-01 0.0000000000000000e+00  1.4159820273868721e-02 -1.7660825778173787e-02 0.0000000000000000e+00  9.1615619507944973e-02 -4.9313762233485658e-02 0.0000000000000000e+00  4.6849200188582456e-02 8.6126704536372306e-02 0.0000000000000000e+00  1.1397796226476188e-02 1.6951235127653766e-01 0.0000000000000000e+00  3.2196426122814065e-02 1.4994226807723854e-01 0.0000000000000000e+00  2.8163446128934261e-04 1.9222935251723022e-01 0.0000000000000000e+00  -1.3966580839118852e-02 1.6794396092582398e-01 0.0000000000000000e+00  -3.0679867285592768e-02 1.5334209981509345e-01 0.0000000000000000e+00  -9.3027151384646720e-02 -4.8677168155846336e-02 0.0000000000000000e+00  -6.0683425062798668e-02 -1.9884341234842888e-02 0.0000000000000000e+00  5.1113392026484461e-02 -2.6986254122048133e-02 0.0000000000000000e+00  -8.2932968723871903e-02 1.3933373068265883e-02 0.0000000000000000e+00  -8.3639004730323110e-02 -5.7441654453594441e-02 0.0000000000000000e+00  -7.4606327454638757e-02 6.0117721475178541e-02 0.0000000000000000e+00  -4.2190426267311315e-02 9.1485123512054359e-02 0.0000000000000000e+00  -3.4355937067011122e-02 -1.2486120151186446e-01 0.0000000000000000e+00  7.6624046749460745e-02 -6.4560208383378032e-02 0.0000000000000000e+00  7.2700916428610513e-02 6.5114963419066307e-02 0.0000000000000000e+00  6.7049600179628743e-02 3.4504920403784285e-02 0.0000000000000000e+00  -3.7876804824717919e-02 5.4395665804600521e-02 0.0000000000000000e+00  7.6226038806480129e-02 5.5556985965379460e-02 0.0000000000000000e+00  5.5068076189212563e-02 -8.4374405574486055e-02 0.0000000000000000e+00  -6.5292450429776411e-02 -7.6079706312138812e-02 0.0000000000000000e+00  4.6599812788237188e-02 -1.1142665502478571e-01 0.0000000000000000e+00  -2.8402363501548508e-02 -2.4279499306614379e-02 0.0000000000000000e+00  -7.5837920496848732e-02 5.9450284737097604e-02 0.0000000000000000e+00  -4.9341982630454827e-02 -9.6864235823379274e-02 0.0000000000000000e+00  -1.1761102938974990e-02 -3.1549666074005334e-02 0.0000000000000000e+00  9.2837138339714534e-02 -1.8333375168233742e-02 0.0000000000000000e+00  -4.0118798222209477e-02 -9.3254750159961874e-02 0.0000000000000000e+00  6.4759935616961672e-03 -1.2763210579529355e-01 0.0000000000000000e+00  2.1157109258093040e-02 -9.6487507591031585e-02 0.0000000000000000e+00  7.8255492004964330e-02 -8.3804612257261865e-02 0.0000000000000000e+00  1.5943707851137454e-02 5.4592156368241405e-02 0.0000000000000000e+00  -1.0358461916022537e-02 -9.7555397360282556e-02 0.0000000000000000e+00  -4.2309198353777173e-02 1.1334567755003337e-01 0.0000000000000000e+00  2.5418952829632888e-02 -1.2690399411681921e-01 0.0000000000000000e+00  4.0507992694747523e-02 -9.1162969056825943e-02 0.0000000000000000e+00  1.0433870302757053e-02 -9.2991121677917316e-02 0.0000000000000000e+00  -4.5800397076058444e-02 9.2338304003527660e-02 0.0000000000000000e+00  -1.0644654741818796e-01 -1.2315224880087934e-02 0.0000000000000000e+00  -1.0009722669478015e-01 3.6107297175060303e-02 0.0000000000000000e+00  9.2356419723999619e-02 5.0565358020466224e-02 0.0000000000000000e+00  5.9000706102932857e-02 -6.4527060490362040e-02 0.0000000000000000e+00  9.9985989811827505e-02 -2.6507470372655873e-02 0.0000000000000000e+00  5.4861338917388786e-02 8.7870413377546516e-02 0.0000000000000000e+00  4.7322343634577879e-02 6.7317292919297736e-02 0.0000000000000000e+00  4.9751827765151024e-02 1.0261311578902675e-01 0.0000000000000000e+00  8.2076080216919589e-02 -6.7950906514162399e-02 0.0000000000000000e+00  -1.6580050568668112e-02 7.6145126982423775e-02 0.0000000000000000e+00  1.0091389691281404e-01 -3.2957191915648235e-02 0.0000000000000000e+00  -3.7031199492426094e-02 -4.6883596901956849e-02 0.0000000000000000e+00  -4.7954202919759633e-03 -6.6489328554892924e-02 0.0000000000000000e+00  4.6313074855659367e-03 -6.1201988919031856e-02 0.0000000000000000e+00  -9.9170385809895442e-03 5.5563140821973992e-04 0.0000000000000000e+00  7.8300038188417714e-02 5.0230512178470452e-02 0.0000000000000000e+00  -5.1490157049134217e-03 1.2355021659880541e-01 0.0000000000000000e+00  2.9443972316984379e-03 1.7657370991495996e-01 0.0000000000000000e+00  -6.8983229774469912e-02 5.1512759727591832e-02 0.0000000000000000e+00  2.5924615912474463e-03 -1.0104799446061449e-01 0.0000000000000000e+00  -1.1554854492221218e-02 -8.8513443298188277e-02 0.0000000000000000e+00  8.9761274831513166e-02 2.2508105282762716e-02 0.0000000000000000e+00  5.1529271411811482e-03 1.3396381383344813e-01 0.0000000000000000e+00  2.8233546955404306e-02 -3.8208612472117820e-02 0.0000000000000000e+00  3.2097297463399587e-03 1.0387584517543227e-01 0.0000000000000000e+00  2.8042418015069299e-02 1.0018937342866285e-01 0.0000000000000000e+00  -9.8356420894723212e-02 4.1554964119099258e-04 0.0000000000000000e+00  -8.8149413716732045e-02 5.8257491526580656e-02 0.0000000000000000e+00  -6.7585489826052475e-02 8.0216748001410015e-02 0.0000000000000000e+00  3.2290010174281215e-02 8.0908081072508006e-02 0.0000000000000000e+00  2.0878952227003533e-02 9.4547848279631468e-03 0.0000000000000000e+00  -5.4705513625470770e-02 1.0903671471844723e-01 0.0000000000000000e+00  1.5651202299534494e-03 -8.0279399647613450e-02 0.0000000000000000e+00  -1.5929548003724970e-02 8.7219978888174676e-02 0.0000000000000000e+00  -5.4108257659537022e-02 6.0015148143636975e-02 0.0000000000000000e+00  -9.2649615208354935e-02 1.5273429221823424e-02 0.0000000000000000e+00  -4.8393958449764067e-02 7.8484302055109950e-02 0.0000000000000000e+00  -8.6981801158120681e-02 -5.5845471153199773e-02 0.0000000000000000e+00  -9.3570702184025981e-02 -4.5887602821922308e-02 0.0000000000000000e+00  7.5595533715008642e-02 -6.8371327026029244e-02 0.0000000000000000e+00  8.8957149811924235e-02 -5.2994582687614089e-02 0.0000000000000000e+00  -1.7614434320039792e-03 -9.1156133532797209e-02 0.0000000000000000e+00  1.3825846334208866e-03 -8.0570140435108337e-02 0.0000000000000000e+00  -7.5965114046462445e-02 5.8976096268812409e-02 0.0000000000000000e+00  -5.5407949128204619e-02 8.9052137583294444e-02 0.0000000000000000e+00  5.4494825910836875e-02 1.0614573646383026e-01 0.0000000000000000e+00  -3.4836988307171669e-02 -9.6945586051211508e-02 0.0000000000000000e+00  