<?xml version="1.0"?>
<VTKFile type="UnstructuredGrid"  version="0.1"  >
<UnstructuredGrid>
<Piece  NumberOfPoints="995" NumberOfCells="1854">
<Points>
<DataArray  type="Float64"  NumberOfComponents="3"  format="ascii">-0.9928640922391674 0.05629156812563863 0  -0.9862618171952026 -0.05151159026457696 0  -0.9671411555176127 -0.158187735652563 0  -0.9359065727191407 -0.261791679040423 0  -0.8927697615250036 -0.3614098662837227 0  -0.8388562544999836 -0.4549258284355044 0  -0.7750775690855781 -0.5412083692146431 0  -0.703293193081527 -0.61855880783974 0  -0.6258558489007402 -0.6859034553153039 0  -0.5432301409370864 -0.743758071452859 0  -0.4556874666073277 -0.7928786048880642 0  -0.3638880393223947 -0.832906275721661 0  -0.2685159495518034 -0.8637713408779326 0  -0.1708554155653736 -0.8851978543978799 0  -0.07174892064706558 -0.8969518310542799 0  0.02809263377089917 -0.8989974292486352 0  0.1275029157330675 -0.8913084105126748 0  0.2263597763971574 -0.8739328688932735 0  0.3227870648117865 -0.8470541207865649 0  0.4159646866609801 -0.8109926253958426 0  0.5055623734079968 -0.7655244629344535 0  0.590065666569522 -0.711478011917922 0  0.669523659480624 -0.648492982591465 0  0.7441482424061807 -0.5754356388980392 0  0.8116199698004979 -0.4927605188265284 0  0.8700015504303961 -0.40227105565646 0  0.9179046086794378 -0.3053773031615979 0  0.9542660587931084 -0.2035168740849565 0  0.9787184651790934 -0.09849686785403387 0  0.991027261976236 0.009222900272139286 0  0.9906203710836433 0.1174553591311889 0  0.9776786756663186 0.2248491605386238 0  0.95263782579399 0.3294872460788839 0  0.9158790222491668 0.4305600457429355 0  0.8678488323418021 0.5271979854433883 0  0.8097185795909078 0.6176076862602665 0  0.7415693145015829 0.7013043513243544 0  0.6647809084122702 0.7767068046549485 0  0.5801427656519159 0.8432520940036796 0  0.4882034866895223 0.9006274904805524 0  0.3909268194505144 0.9476363217332027 0  0.2896468354250921 0.9838611675440054 0  0.1849319358606392 1.009037107108998 0  0.07738293247366977 1.023022595732283 0  -0.03080145209240605 1.02545818538333 0  -0.1385685808422156 1.016339030417303 0  -0.2445682647648848 0.9959235143586703 0  -0.3477209745639794 0.9641503831992528 0  -0.4469307053087478 0.9218304396731997 0  -0.5406340280247565 0.8693579585752884 0  -0.6286532219753985 0.806546713775841 0  -0.7091561388070245 0.734711310426492 0  -0.7810441701055431 0.6548215619575471 0  -0.8440464784647499 0.5670045476022633 0  -0.896733105451466 0.4729300677501076 0  -0.9385626801421192 0.3732761438875978 0  -0.9687142197486595 0.2700376638181111 0  -0.9869014959508483 0.1641558498650772 0  -2.159813069304914 0.1013461997220402 0  -2.159813951090259 -0.1013486269486665 0  -2.140832102986613 -0.3031473271079771 0  -2.10303388754671 -0.5022881493855338 0  -2.046764198226557 -0.6970106999500288 0  -1.972494090529897 -0.8856100574701598 0  -1.88089866108748 -1.066426741845326 0  -1.77277794619673 -1.237872164273791 0  -1.649071070705456 -1.398438947712533 0  -1.510874668298737 -1.546716008467313 0  -1.359395475196553 -1.681398067608135 0  -1.195977398574873 -1.801309485668526 0  -1.022041656669779 -1.905384357010057 0  -0.8391307228756102 -1.992721553121601 0  -0.6488383269525081 -2.062543408612047 0  -0.4528526826474045 -2.11423927000485 0  -0.2528783140255464 -2.147354999405338 0  -0.05068973439442908 -2.161599169841985 0  0.151949982154764 -2.156842419316141 0  0.3532530256329822 -2.133137085475196 0  0.5514509244718152 -2.090689769520389 0  0.7448028760784488 -2.029859360239815 0  0.9316097995451857 -1.951200256797393 0  1.110228307082902 -1.855383096386391 0  1.279091455917688 -1.743267481409217 0  1.436713770809614 -1.615836336679571 0  1.581712161057828 -1.474197180051448 0  1.712802594375225 -1.319605708136609 0  1.828844592605838 -1.153415531698696 0  1.928819970847845 -0.9770962651532771 0  2.011836664249932 -0.7921807213850736 0  2.077178194019361 -0.6003094700231443 0  2.124264751562104 -0.4031616095544409 0  2.152683638542644 -0.2024712035200562 0  2.162189696803614 -2.811333773761058e-06 0  2.152684290200039 0.2024690588931464 0  2.124265950139089 0.4031599649727972 0  2.077184522529353 0.6003112163478938 0  2.011838417723407 0.7921801557387671 0  1.928822499879741 0.9770959339260635 0  1.828853025727276 1.153417133684248 0  1.712803018412665 1.319603637116514 0  1.581713310761235 1.474198308629559 0  1.436712163658515 1.615831700041751 0  1.279090596710376 1.743267962730815 0  1.110228291744547 1.85538494246053 0  0.9316110758202857 1.95120071031642 0  0.7448047219548694 2.029864199882172 0  0.5514518568181874 2.090689978443401 0  0.3532531433211787 2.133141809137569 0  0.1519512652931317 2.15684834118097 0  -0.05068795729656401 2.161593959831316 0  -0.252881374742715 2.147351257653371 0  -0.4528518261679187 2.114240200369305 0  -0.6488396363745224 2.062539628774643 0  -0.839129493837274 1.992722971371184 0  -1.022044562776844 1.905389789819971 0  -1.195976002157423 1.801310943445948 0  -1.359400725560465 1.681400587986733 0  -1.510875105446313 1.546716623253079 0  -1.649072405005743 1.39844154544954 0  -1.772779233118779 1.237872667089918 0  -1.880904258547177 1.066428914787687 0  -1.972502533816689 0.8856093765803008 0  -2.046758508521021 0.6970097573466141 0  -2.103040047022624 0.5022846726314314 0  -2.14083310900201 0.3031505349444033 0  0.00109030523026767 0.07909290021344763 0  0.2992284317359494 -1.507989018603264 0  -0.3698657442366163 -1.492747270316894 0  0.9123282907856741 -1.246764877850608 0  -0.9294278885222623 -1.23936464900278 0  1.35625721751599 -0.7733411515141715 0  -1.392325553633629 -0.7103661468474975 0  1.574345285423061 -0.0826317550930071 0  -1.578275039703453 -0.009066907450753916 0  1.506603813595101 0.5027057374366343 0  -1.486160730660017 0.5591452325575944 0  1.216733593712815 1.026089721838765 0  -1.170482600049478 1.079746539812778 0  0.03434476757475324 1.594404192332771 0  0.6236015304897184 1.469537791839211 0  -0.6193681985586738 1.465536857847694 0  -0.5011040069466294 0.04613192907089994 0  0.5024361095759186 0.07380759125773462 0  -0.2237697300840363 -0.3509105660097802 0  -0.2580835831204283 0.4826858779278258 0  0.2464656439368166 0.4893798735292527 0  0.2523626922880719 -0.341494663083891 0  0.6871968149318762 -1.630030632268596 0  -0.7579774419927541 -1.601017665721472 0  -0.04103970547018108 -1.747044450685674 0  0.8391146726683221 1.136463454566885 0  1.117400596112144 1.398202185958452 0  1.364707747415481 -1.156317044184474 0  1.668775702734641 -0.4889070922666874 0  1.301925141441431 -0.3588803320680309 0  -1.333415133713022 -1.121905970095818 0  -1.717312799280724 -0.5000015541752435 0  -1.365528351136087 -0.3329590538045941 0  1.777699550412362 0.2419207062295513 0  1.564538279702867 0.8809640625075957 0  -1.015980227838112 1.448907670171232 0  -1.52386133657344 0.9420948098221014 0  0.3786441779349247 1.758808678153228 0  -0.2954790830319425 1.776128532267003 0  -1.768754306720818 0.3178662755564018 0  -1.023743711526027 -0.8607265919251481 0  -0.03345943856506205 -1.293899752138614 0  0.5228881221142229 -1.193125886336105 0  -0.5714768483222447 -1.145633055196357 0  0.9851614320538428 -0.8772666599703024 0  -0.8010510609759174 1.135567278876279 0  -0.2603803934276526 1.364651451208111 0  -1.167067664753778 0.7180428563397488 0  1.191593727343749 0.6303669612594547 0  1.168733342180519 -1.443282507789789 0  -0.5513988716169308 -0.2878638659779731 0  1.314888522209857 0.2170210422544321 0  -0.5796102690336995 0.3685589447293776 0  0.5723613870250709 -0.2567638247823034 0  0.2900546423940751 1.34537016430934 0  -1.848824949254709 -0.1783433421323906 0  0.4209686022291128 -1.80317520158235 0  -0.474507545097182 -1.79673811144221 0  -1.331151949060566 0.237806734190688 0  0.5684609258357813 0.4023195992603754 0  0.8968845131648955 1.626490466470806 0  -1.059412228715512 -1.523428637586193 0  0.0173624414016198 0.7139692707666175 0  1.104909218783257 -0.5927880662414793 0  -1.136545724510522 -0.5380270197166716 0  1.595346385492963 -0.9631765232870543 0  -1.592580007026989 -0.9511408468300351 0  -0.8254236549583697 1.682770672774575 0  0.01840781673200992 -0.5624014507064871 0  1.876881390062201 -0.09247311849793181 0  -1.281137764917263 -0.05496690247578706 0  -1.755403344652872 0.6849772248076728 0  1.278326119471659 -0.0726680858431987 0  1.753023657858825 0.6622535300341985 0  1.474701267328225 1.158154328840399 0  -1.425784709503749 1.216655451156833 0  0.9926723030006269 0.8409014017663008 0  0.04448410928673183 1.886913739214306 0  0.551484083989864 1.187200093303331 0  0.2404372993023676 -1.223672746376464 0  -0.5075923542936566 1.20013157298182 0  -0.2845876769169237 -1.159890037267804 0  0.7133269772973392 -0.9819170405177661 0  -0.9551177095001238 0.9003503531184429 0  0.01368314492789156 1.319161975918961 0  -0.7538135914204499 -0.9422492370637057 0  -0.560679245869686 1.728984874888243 0  0.656632342010592 1.768224923681017 0  0.9163954049325668 -1.507016189254795 0  -0.7363638564851378 -0.05624648406442304 0  0.7413613960966395 0.146121535857428 0  -1.24421943165207 0.4754434496071347 0  -1.822532491225824 0.0718044920706867 0  -0.2569188648866184 0.2022144242683754 0  -0.2518133794429364 -0.07356105934995795 0  -0.301770540835826 0.7234221371720241 0  -0.383716409541441 -0.5434143376759641 0  -0.004034726822462865 0.3564006094174563 0  0.2537284082403864 -0.05760951593942407 0  0.2586166398896108 0.2162054429258999 0  -1.607332595986838 -0.2534715788751808 0  0.6987273876337987 -1.377560624563881 0  0.2565298805158455 -0.5962668527861078 0  0.4541680816198644 0.6292165623627715 0  0.01131524663311897 -0.1982152044527608 0  0.8545928709156685 1.383276177989454 0  -0.7101925379160171 -1.355953387505068 0  -1.169000242385756 -1.303492631494378 0  1.748061616825965 -0.7436897242466697 0  1.360129538884174 1.376491092774419 0  -1.633378582925008 -0.7196296310601519 0  -0.3994317521158136 1.556098920561027 0  -1.211691601227821 1.3151845197431
[...]
<PointData  Vectors="f_2145-0"> 
<DataArray  type="Float64"  Name="f_2145-0"  NumberOfComponents="3" format="ascii">-1.9009194942698503e-02 -8.5003316662020989e-02 0.0000000000000000e+00  -4.4395180673590333e-04 -9.7037425111697093e-02 0.0000000000000000e+00  2.1272426838512545e-02 -1.0821241156606554e-01 0.0000000000000000e+00  4.5031406780340143e-02 -1.1548596194367905e-01 0.0000000000000000e+00  7.1380251942942369e-02 -1.2098533272698482e-01 0.0000000000000000e+00  9.6765954238838436e-02 -1.1935074406576078e-01 0.0000000000000000e+00  1.1966672686819005e-01 -1.1155369590272017e-01 0.0000000000000000e+00  1.3450764019795325e-01 -9.4768435817734753e-02 0.0000000000000000e+00  1.3530768438159085e-01 -6.9327356680676661e-02 0.0000000000000000e+00  1.2631815397547985e-01 -4.2472669241628118e-02 0.0000000000000000e+00  1.1267630066106234e-01 -1.8532987049650403e-02 0.0000000000000000e+00  9.3377064432783041e-02 2.6021847951805386e-03 0.0000000000000000e+00  7.1169134047272015e-02 1.8891048119720893e-02 0.0000000000000000e+00  4.6450695711043294e-02 3.0642627800998253e-02 0.0000000000000000e+00  1.9825268675245013e-02 3.7402182254470361e-02 0.0000000000000000e+00  -7.3437997707985541e-03 3.8624463051604802e-02 0.0000000000000000e+00  -3.4570230593956634e-02 3.4496521410432593e-02 0.0000000000000000e+00  -5.8557414699523413e-02 2.5487536234590973e-02 0.0000000000000000e+00  -8.1899048887223908e-02 1.1046752854213590e-02 0.0000000000000000e+00  -1.0350342820629836e-01 -8.4844406934953751e-03 0.0000000000000000e+00  -1.1859757866194630e-01 -3.0674258910907075e-02 0.0000000000000000e+00  -1.3106381500602152e-01 -5.7224797756216660e-02 0.0000000000000000e+00  -1.3626134835792031e-01 -8.4294454041546299e-02 0.0000000000000000e+00  -1.2695435058144419e-01 -1.0446215366844409e-01 0.0000000000000000e+00  -1.0708168665248413e-01 -1.1570607117912665e-01 0.0000000000000000e+00  -8.2670943338158595e-02 -1.1932355424921545e-01 0.0000000000000000e+00  -5.6690422139321975e-02 -1.1761343950348006e-01 0.0000000000000000e+00  -3.2086210762188649e-02 -1.1164750473244063e-01 0.0000000000000000e+00  -9.9257421908579696e-03 -1.0388911568879190e-01 0.0000000000000000e+00  1.0277628453136791e-02 -9.0993059530498785e-02 0.0000000000000000e+00  2.7244264280277198e-02 -7.6926152983447044e-02 0.0000000000000000e+00  4.1575211682276431e-02 -6.1578165625359081e-02 0.0000000000000000e+00  5.3263671224217282e-02 -4.7112942742891635e-02 0.0000000000000000e+00  6.1382479971434034e-02 -3.2202195485683913e-02 0.0000000000000000e+00  6.5911819914694261e-02 -1.5326124996647872e-02 0.0000000000000000e+00  6.9359432517578881e-02 -1.0051155748789962e-03 0.0000000000000000e+00  6.8496269675673474e-02 1.4993930259026438e-02 0.0000000000000000e+00  6.6185494401543546e-02 2.8621145928928251e-02 0.0000000000000000e+00  6.1804543351294636e-02 4.0794146609065753e-02 0.0000000000000000e+00  5.2379365350635768e-02 5.3272557810798239e-02 0.0000000000000000e+00  4.2849540455400084e-02 6.2647325603661569e-02 0.0000000000000000e+00  3.3617755656244294e-02 6.9176747211358580e-02 0.0000000000000000e+00  2.3214811882914153e-02 7.3896873999948862e-02 0.0000000000000000e+00  8.7557848427607787e-03 7.6906768774937323e-02 0.0000000000000000e+00  -4.2510772179781995e-03 7.7685154852872168e-02 0.0000000000000000e+00  -1.7523526784435646e-02 7.5997558605665913e-02 0.0000000000000000e+00  -2.9391698814847430e-02 7.1968810825743426e-02 0.0000000000000000e+00  -4.0657345036363951e-02 6.5569417932666144e-02 0.0000000000000000e+00  -5.0566323309447020e-02 5.7211804380498464e-02 0.0000000000000000e+00  -5.6999629195696018e-02 4.7922050921336196e-02 0.0000000000000000e+00  -6.4553600652281731e-02 3.4884030591948369e-02 0.0000000000000000e+00  -6.8889808422538307e-02 2.0742547779750334e-02 0.0000000000000000e+00  -6.9085972398849477e-02 7.3035020669796665e-03 0.0000000000000000e+00  -6.8810201485939609e-02 -9.6650786276235006e-03 0.0000000000000000e+00  -6.4644308229946934e-02 -2.5644199094474712e-02 0.0000000000000000e+00  -5.8004805806004589e-02 -4.2881703022003788e-02 0.0000000000000000e+00  -4.7535244458806324e-02 -5.7250525433344426e-02 0.0000000000000000e+00  -3.4601010933061650e-02 -7.0388881753315632e-02 0.0000000000000000e+00  -1.2610627280306203e-01 5.9154574175489128e-03 0.0000000000000000e+00  -1.2611233808751718e-01 -5.9322964799257954e-03 0.0000000000000000e+00  -1.2499541138339543e-01 -1.7684045322713497e-02 0.0000000000000000e+00  -1.2276275947537460e-01 -2.9326451736099483e-02 0.0000000000000000e+00  -1.1951702773973867e-01 -4.0683547875801696e-02 0.0000000000000000e+00  -1.1513396276514871e-01 -5.1694702107005767e-02 0.0000000000000000e+00  -1.0979658189021226e-01 -6.2256302083118047e-02 0.0000000000000000e+00  -1.0352284801527971e-01 -7.2271139764610387e-02 0.0000000000000000e+00  -9.6292494916603855e-02 -8.1651318172928020e-02 0.0000000000000000e+00  -8.8235806134484826e-02 -9.0309794236135443e-02 0.0000000000000000e+00  -7.9366173548413049e-02 -9.8162135457905655e-02 0.0000000000000000e+00  -6.9850258891784520e-02 -1.0518695685519182e-01 0.0000000000000000e+00  -5.9671747819129345e-02 -1.1124422296213382e-01 0.0000000000000000e+00  -4.9011845387756679e-02 -1.1636947587630640e-01 0.0000000000000000e+00  -3.7872428472465629e-02 -1.2045110935291224e-01 0.0000000000000000e+00  -2.6463519243784171e-02 -1.2347112395442905e-01 0.0000000000000000e+00  -1.4755174040967836e-02 -1.2540660820628641e-01 0.0000000000000000e+00  -2.9779853562671250e-03 -1.2623581733862749e-01 0.0000000000000000e+00  8.8692052706214452e-03 -1.2592490312471599e-01 0.0000000000000000e+00  2.0627143830430853e-02 -1.2454564389556422e-01 0.0000000000000000e+00  3.2198862580007363e-02 -1.2209889680668636e-01 0.0000000000000000e+00  4.3488925010134405e-02 -1.1851312758188544e-01 0.0000000000000000e+00  5.4399603375852930e-02 -1.1394995716080894e-01 0.0000000000000000e+00  6.4821841024400681e-02 -1.0831468704512462e-01 0.0000000000000000e+00  7.4684809647710876e-02 -1.0177101971587567e-01 0.0000000000000000e+00  8.3890316477089666e-02 -9.4361795589710987e-02 0.0000000000000000e+00  9.2370633960504725e-02 -8.6071732309578514e-02 0.0000000000000000e+00  9.9988812456820064e-02 -7.7043450484395370e-02 0.0000000000000000e+00  1.0675190896624875e-01 -6.7326555578133995e-02 0.0000000000000000e+00  1.1261276738012700e-01 -5.7063911342469395e-02 0.0000000000000000e+00  1.1742924940713899e-01 -4.6239544779332863e-02 0.0000000000000000e+00  1.2124794044402437e-01 -3.5043575464356387e-02 0.0000000000000000e+00  1.2399512054745075e-01 -2.3537943956722242e-02 0.0000000000000000e+00  1.2565660034463602e-01 -1.1823930526813863e-02 0.0000000000000000e+00  1.2624641030214703e-01 -1.9027325673418889e-05 0.0000000000000000e+00  1.2566071415846958e-01 1.1810505790495938e-02 0.0000000000000000e+00  1.2400288331540216e-01 2.3527849970524668e-02 0.0000000000000000e+00  1.2128904479093636e-01 3.5055951606224170e-02 0.0000000000000000e+00  1.1744083231278193e-01 4.6235229738277317e-02 0.0000000000000000e+00  1.1262802350327557e-01 5.7063119255602208e-02 0.0000000000000000e+00  1.0680863023113955e-01 6.7334761324006606e-02 0.0000000000000000e+00  9.9991201775149738e-02 7.7029686219105789e-02 0.0000000000000000e+00  9.2377977881583501e-02 8.6078903476788302e-02 0.0000000000000000e+00  8.3879909440191650e-02 9.4330778971790527e-02 0.0000000000000000e+00  7.4678560102048791e-02 1.0177458935908509e-01 0.0000000000000000e+00  6.4821661429729976e-02 1.0832690914669246e-01 0.0000000000000000e+00  5.4406218627685667e-02 1.1395361958501586e-01 0.0000000000000000e+00  4.3501815677518714e-02 1.1854455659374706e-01 0.0000000000000000e+00  3.2206820154230362e-02 1.2209983092981960e-01 0.0000000000000000e+00  2.0626646137030469e-02 1.2457704260204813e-01 0.0000000000000000e+00  8.8792408144052655e-03 1.2596398831762248e-01 0.0000000000000000e+00  -2.9636955744786935e-03 1.2620184263707246e-01 0.0000000000000000e+00  -1.4776850206284614e-02 1.2538205677829398e-01 0.0000000000000000e+00  -2.6456596844438594e-02 1.2347771772179261e-01 0.0000000000000000e+00  -3.7883361387753861e-02 1.2042575481678830e-01 0.0000000000000000e+00  -4.9005381720000608e-02 1.1637801093607823e-01 0.0000000000000000e+00  -5.9691106081008451e-02 1.1127962146872553e-01 0.0000000000000000e+00  -6.9839600249061287e-02 1.0519710440220825e-01 0.0000000000000000e+00  -7.9401099798691602e-02 9.8178258539825827e-02 0.0000000000000000e+00  -8.8238292958709857e-02 9.0313673138350120e-02 0.0000000000000000e+00  -9.6301124511318212e-02 8.1667928977705070e-02 0.0000000000000000e+00  -1.0353199720631436e-01 7.2272755784488510e-02 0.0000000000000000e+00  -1.0983258176274563e-01 6.2270735217788017e-02 0.0000000000000000e+00  -1.1518872841674679e-01 5.1691339275458791e-02 0.0000000000000000e+00  -1.1947922613530727e-01 4.0677477607663146e-02 0.0000000000000000e+00  -1.2280375137441567e-01 2.9300976831627537e-02 0.0000000000000000e+00  -1.2500155269525609e-01 1.7706618265114320e-02 0.0000000000000000e+00  -4.2342556670416900e-04 1.6194186129168936e-01 0.0000000000000000e+00  1.3665010445821892e-02 -8.3379652009839447e-02 0.0000000000000000e+00  -1.6784883617481851e-02 -8.1751098235221351e-02 0.0000000000000000e+00  4.2136579037319113e-02 -7.0074796662417532e-02 0.0000000000000000e+00  -4.3335921302908011e-02 -6.9867394507795985e-02 0.0000000000000000e+00  4.3368640176605126e-02 -5.1963553717258276e-02 0.0000000000000000e+00  -4.1998416585740474e-02 -5.3377158520877141e-02 0.0000000000000000e+00  6.6135246980942600e-02 -6.0255873418345117e-02 0.0000000000000000e+00  -7.0543403649809530e-02 -5.8984655865172805e-02 0.0000000000000000e+00  9.7479325200975492e-02 -3.5234009462615762e-02 0.0000000000000000e+00  -1.0002336683993779e-01 -3.1639407765417925e-02 0.0000000000000000e+00  1.0582376877478476e-01 1.5527655866815969e-02 0.0000000000000000e+00  -1.0441708759561483e-01 2.2823259073511147e-02 0.0000000000000000e+00  4.4165190781690501e-03 9.9458813708202282e-02 0.0000000000000000e+00  6.5365846364417030e-02 7.8010163065578633e-02 0.0000000000000000e+00  -6.4589582328847997e-02 7.8111213776359045e-02 0.0000000000000000e+00  -4.3207499582719439e-02 7.4010784344635913e-02 0.0000000000000000e+00  4.3644109684271584e-02 7.3701987158520291e-02 0.0000000000000000e+00  8.9605866688142171e-03 1.4981417215236786e-01 0.0000000000000000e+00  -3.2493855590372933e-02 1.0788287331602255e-01 0.0000000000000000e+00  3.0657544389027305e-02 1.0895972719875401e-01 0.0000000000000000e+00  -9.7048094122980429e-03 1.4468031569208079e-01 0.0000000000000000e+00  4.7301635056631063e-02 -9.8920167834468178e-02 0.0000000000000000e+00  -5.1894358709251319e-02 -9.6554063654964314e-02 0.0000000000000000e+00  -3.1391090456837269e-03 -1.0738870945687971e-01 0.0000000000000000e+00  8.5863495130520537e-02 3.4876656820744582e-02 0.0000000000000000e+00  9.8596547816427488e-02 6.4993997457753139e-02 0.0000000000000000e+00  8.3737286877296951e-02 -6.3852733573117951e-02 0.0000000000000000e+00  8.1014071654569184e-02 -5.0033997444437713e-02 0.0000000000000000e+00  -2.0130182027310066e-03 -7.5626975095826582e-02 0.0000000000000000e+00  -7.7387432246273785e-02 -6.1483618719758860e-02 0.0000000000000000e+00  -8.9827654665940948e-02 -4.9149530057840181e-02 0.0000000000000000e+00  -1.5327134040105217e-02 -7.2566447992884739e-02 0.0000000000000000e+00  1.1018327537831193e-01 -2.8913969076833083e-02 0.0000000000000000e+00  1.1820311235649698e-01 1.3127259910908535e-02 0.0000000000000000e+00  -9.1911792166405271e-02 7.1167623125431526e-02 0.0000000000000000e+00  -1.1792293218770605e-01 1.8266829624195811e-02 0.0000000000000000e+00  3.6681290599515602e-02 1.0936946493048405e-01 0.0000000000000000e+00  -2.8061008161686107e-02 1.1186606440372154e-01 0.0000000000000000e+00  -1.1206382591174789e-01 -2.5263022045009950e-02 0.0000000000000000e+00  8.3545047157177962e-03 -5.9767120381793326e-02 0.0000000000000000e+00  3.8635386245782291e-04 -5.0570771152928198e-02 0.0000000000000000e+00  -7.6068016405208142e-03 -5.9795667591585056e-02 0.0000000000000000e+00  1.3961021085815492e-02 -6.0533836161983254e-02 0.0000000000000000e+00  -1.0930522840305778e-02 -6.2876011755704286e-02 0.0000000000000000e+00  -8.2503910875125874e-02 3.7531546535061876e-02 0.0000000000000000e+00  -2.9993506110198426e-02 7.9406334147101285e-02 0.0000000000000000e+00  -9.0764970232828673e-02 -2.3751331247919047e-02 0.0000000000000000e+00  8.4023151290779363e-02 -3.5812990192360977e-02 0.0000000000000000e+00  8.0037316711143641e-02 -8.3572067136581760e-02 0.0000000000000000e+00  7.7757323683159928e-03 3.5216515536971534e-02 0.0000000000000000e+00  5.2395964069194896e-02 -7.1513156166657502e-02 0.0000000000000000e+00  -5.6868941527571701e-02 5.0318081041156586e-02 0.0000000000000000e+00  -2.4029444905147366e-03 2.8507308621817849e-02 0.0000000000000000e+00  3.4758595146748186e-02 7.6127933602927300e-02 0.0000000000000000e+00  -1.0688903169521292e-01 -3.8570362182248581e-02 0.0000000000000000e+00  2.9754453611513194e-02 -1.1270631379072059e-01 0.0000000000000000e+00  -3.3718778854988120e-02 -1.1182212132579049e-01 0.0000000000000000e+00  -5.6065865901810320e-02 -6.9274046614796567e-02 0.0000000000000000e+00  5.8004683314407564e-02 5.2430013764046025e-02 0.0000000000000000e+00  7.8489868975793131e-02 9.1388625065713880e-02 0.0000000000000000e+00  -7.3631376049270128e-02 -8.9942678783161908e-02 0.0000000000000000e+00  2.0947203141282642e-03 1.0116613030304938e-01 0.0000000000000000e+00  -3.9405984907736079e-02 -7.6835382027542254e-02 0.0000000000000000e+00  3.7266890492024383e-02 -7.8168383287389093e-02 0.0000000000000000e+00  9.5421875186744595e-02 -5.6459785196930956e-02 0.0000000000000000e+00  -9.3956007894932386e-02 -5.6534628109600429e-02 0.0000000000000000e+00  -7.1355090402535501e-02 9.7549611102059661e-02 0.0000000000000000e+00  -3.4775015737279666e-03 1.4084612649473016e-01 0.0000000000000000e+00  1.1129868572053231e-01 -3.3825967635563982e-02 0.0000000000000000e+00  -1.7853388628003786e-02 -8.6033641543857481e-02 0.0000000000000000e+00  -1.2223122997299907e-01 6.7996728694021541e-03 0.0000000000000000e+00  1.5041106359731018e-02 -8.6801072996961062e-02 0.0000000000000000e+00  1.2155546891633608e-01 4.5207029371497950e-03 0.0000000000000000e+00  1.1471173452502724e-01 4.4010201706168289e-02 0.0000000000000000e+00  -1.1237442658719607e-01 4.9716772766524253e-02 0.0000000000000000e+00  8.6550219888771249e-02 -5.4464818352813419e-03 0.0000000000000000e+00  4.3322622251578515e-03 1.2036933411915750e-01 0.0000000000000000e+00  6.1454794285550514e-02 5.4729860958624602e-02 0.0000000000000000e+00  -8.5140719277816256e-03 -4.6614581165887500e-02 0.0000000000000000e+00  -5.6854620337163736e-02 5.6967359065525906e-02 0.0000000000000000e+00  1.9937252220101211e-02 -3.7784619120303946e-02 0.0000000000000000e+00  -3.5311945489397513e-02 -6.5217104583811927e-02 0.0000000000000000e+00  -8.6457347486355127e-02 2.7499066071745345e-03 0.0000000000000000e+00  2.4824717163173531e-03 8.0494182944578552e-02 0.0000000000000000e+00  3.9164750157096563e-02 -7.1722492175465835e-02 0.0000000000000000e+00  -5.1933957211055211e-02 1.0485958197566667e-01 0.0000000000000000e+00  5.7335121146157457e-02 1.0653004458776846e-01 0.0000000000000000e+00  6.2091115232971256e-02 -8.8958014468154642e-02 0.0000000000000000e+00  -2.3235582929397005e-02 -2.5511166278003851e-02 0.0000000000000000e+00  4.6410557294958459e-02 -6.9858185867736500e-03 0.0000000000000000e+00  -7.3182646916961094e-02 -5.1852787845582393e-02 0.0000000000000000e+00  -1.0893946992919502e-01 -3.3270289424495850e-02 0.0000000000000000e+00  -3.1293911584152449e-02 1.2941931648869767e-01 0.0000000000000000e+00  -2.1303218333579132e-02 1.4679090647205909e-01 0.0000000000000000e+00  -3.6057842694600134e-02 8.5762091800990869e-02 0.0000000000000000e+00  7.1293506830734737e-02 7.4180024216930041e-02 0.0000000000000000e+00  -7.3408276107030329e-04 1.3617348212113958e-01 0.0000000000000000e+00  2.1078224113668578e-02 1.4594338092705794e-01 0.0000000000000000e+00  3.0813779553988143e-02 1.2846706404618691e-01 0.0000000000000000e+00  -6.7308914707825684e-02 -5.7000591662228255e-02 0.0000000000000000e+00  3.3269843216373010e-02 -7.7713319093941288e-02 0.0000000000000000e+00  -5.5002485616656986e-02 1.0013276615405699e-01 0.0000000000000000e+00  5.0105843517095294e-02 6.9504875286243939e-02 0.0000000000000000e+00  -1.7766769569485814e-04 1.7630611224538070e-01 0.0000000000000000e+00  8.5121940309088859e-02 6.3966521531479761e-02 0.0000000000000000e+00  -3.1544384558538911e-02 -7.6701648326333957e-02 0.0000000000000000e+00  -7.4295886284879112e-02 -7.2926728650114528e-02 0.0000000000000000e+00  1.0225239121647595e-01 -4.9928526554805522e-02 0.0000000000000000e+00  1.0486448815640487e-01 6.7279510008452101e-02 0.0000000000000000e+00  -8.5906752851454340e-02 -5.1471842353651646e-02 0.0000000000000000e+00  -4.2541369857400313e-02 9.1817258880311281e-02 0.0000000000000000e+00  -1.0428831159479399e-01 5.5905856507909184e-02 0.0000000000000000e+00  -6.8165110854843447e-02 4.9061803156127626e-02 0.0000000000000000e+00  1.2883529073022551e-02 -1.0554674292779052e-01 0.0000000000000000e+00  2.1971885476013879e-03 -8.2374156162093745e-02 0.0000000000000000e+00  -4.4047725153676005e-02 -5.9485241542930160e-02 0.0000000000000000e+00  4.8823949422752935e-02 -6.0388817572946306e-02 0.0000000000000000e+00  1.2361974708595899e-01 -2.9175858113179973e-04 0.0000000000000000e+00  1.1234262053424429e-01 -4.0042607393013296e-02 0.0000000000000000e+00  -9.4099646573486920e-02 -7.6033403666087948e-02 0.0000000000000000e+00  8.5024702874473543e-02 -5.0183589856070181e-02 0.0000000000000000e+00  2.9357348201919761e-03 -1.2262148656409348e-01 0.0000000000000000e+00  -1.7481014254406325e-02 -1.1910632387298102e-01 0.0000000000000000e+00  -5.5475319097847378e-02 6.0870314559789453e-02 0.0000000000000000e+00  -5.2726904698118249e-02 1.5247870795865141e-02 0.0000000000000000e+00  8.6509990266794734e-02 -4.9170478606596145e-02 0.0000000000000000e+00  1.0510893864461822e-01 -8.8542810957424768e-03 0.0000000000000000e+00  6.2112753516722123e-02 -1.0537892666973432e-01 0.0000000000000000e+00  2.7200999121623135e-02 -3.1218311520252867e-03 0.0000000000000000e+00  2.9612097269410609e-02 9.0344285979738093e-02 0.0000000000000000e+00  -8.8751354108998856e-02 -4.6745252268933557e-02 0.0000000000000000e+00  2.6134097799396957e-02 -9.8667098377295481e-02 0.0000000000000000e+00  -1.9673438439951778e-02 9.6327439000677306e-02 0.0000000000000000e+00  6.1089442382066872e-02 -6.1394283959730699e-02 0.0000000000000000e+00  -5.7275533724991841e-03 -7.6837352416639443e-02 0.0000000000000000e+00  1.2679238187851445e-02 -6.0127158974758357e-02 0.0000000000000000e+00  -8.6625018766611578e-02 -8.6351172598459106e-02 0.0000000000000000e+00  -1.9333486881176143e-02 -1.0216819067007166e-01 0.0000000000000000e+00  6.7838760126120473e-02 -5.1091771753000462e-02 0.0000000000000000e+00  2.9129960445091623e-02 9.5005297415109352e-02 0.0000000000000000e+00  1.8123305576169518e-02 -7.6058037137365947e-02 0.0000000000000000e+00  -4.1463524747551876e-02 -5.2837594458274836e-02 0.0000000000000000e+00  4.3170943426304190e-02 1.0295562233103420e-01 0.0000000000000000e+00  -1.0602373199474099e-01 -1.3907725343340565e-02 0.0000000000000000e+00  -8.8915379553454604e-02 8.8047057336650983e-02 0.0000000000000000e+00  9.1733520130140925e-02 -8.1243248888770853e-02 0.0000000000000000e+00  7.4570790040659071e-02 -9.8022286143594164e-02 0.0000000000000000e+00  4.4552438413624093e-02 -6.3384300656679840e-02 0.0000000000000000e+00  -4.7116577498285885e-02 -1.1397968763739169e-01 0.0000000000000000e+00  -1.1556587565807720e-01 -3.6123607455059964e-02 0.0000000000000000e+00  -9.7912203039601367e-02 -6.5780842058096811e-02 0.0000000000000000e+00  -1.0935298543846685e-01 -4.7317146894926561e-02 0.0000000000000000e+00  3.3384193857605958e-02 -5.4053720746199824e-02 0.0000000000000000e+00  8.2053596331498904e-02 -8.8458862263657984e-02 0.000000